default_name
 51353
  23.0012577  57.9433786  48.3624837  22.2912438  57.7308686  49.0486475
  22.5619410  58.3825703  47.5661096  23.7753260  58.3971408  48.8261838
  23.5447609  56.6669946  47.8538806  23.3947897  56.5941220  46.7767095
  25.0572969  56.6003278  48.1464201  25.4755234  57.5856378  47.9406294
  25.1658663  56.3744369  49.2072151  25.8033642  55.5466884  47.3212548
  25.1153534  54.7085941  46.7051501  27.0505543  55.5765133  47.2954032
  22.7446082  55.5148790  48.4703540  22.1111460  55.7341547  49.4988402
  22.7301543  54.3354920  47.8450611  23.0391898  54.3447493  46.8835463
  22.1654518  53.0845612  48.3862166  21.8092409  53.2506312  49.4028944
  20.9827266  52.6056382  47.5220945  21.3069172  52.6352086  46.4818420
  20.7684800  51.5753565  47.8062035  19.7116701  53.4580427  47.6874872
  19.9575564  54.4849184  47.4169929  18.9567440  53.0731037  47.0019140
  19.1639113  53.4238285  49.1245817  19.0698283  52.3836977  49.4366320
  19.8695368  53.9363682  49.7784128  17.7972509  54.1083344  49.2127023
  17.8982471  55.1391037  48.8729744  17.0974515  53.5798694  48.5653194
  17.2878026  54.0948763  50.6069542  17.9358964  54.5848869  51.2069239
  16.3871755  54.5507621  50.6407042  17.1937394  53.1398240  50.9217973
  23.2059064  51.9817477  48.6116731  22.8707953  50.9682177  49.2098340
  24.4619994  52.2097704  48.2206922  24.6363537  52.9255411  47.5297709
  25.6042470  51.4474211  48.7355902  25.3845864  50.3797989  48.7411898
  26.8049280  51.6938004  47.8248041  27.0469700  52.7559530  47.7881064
  27.6512105  51.1427981  48.2350508  26.6465675  51.2422758  46.4092118
  26.4432223  52.0410783  45.3398056  26.3029468  53.1054327  45.5284115
  26.4604660  51.2831691  44.1850076  26.3502609  51.6794730  43.2625665
  26.6803419  49.9501259  44.4630659  26.8805782  48.8206834  43.6538799
  26.9039579  48.9826096  42.5762287  27.0374324  47.5644355  44.2631868
  27.1982384  46.6657265  43.6677345  26.9877029  47.4541167  45.6644779
  27.0572118  46.4865738  46.1615986  26.8455062  48.6017727  46.4683086
  26.8900872  48.4411484  47.5454869  26.7136963  49.8790126  45.8875519
  25.9798540  51.8314536  50.1753858  26.5996793  51.0345149  50.8726915
  25.6466561  53.0527580  50.6096390  25.2724631  53.7111388  49.9413474
  25.8427206  53.5014325  51.9939377  26.8853786  53.3597507  52.2783489
  25.4890558  54.9909034  52.1481663  24.6333807  55.1986517  51.5057023
  25.2117021  55.1617390  53.1883539  26.6505054  55.9204012  51.7693709
  26.9839421  55.5560444  50.7976894  26.2873365  56.9431330  51.6682416
  27.8274365  55.8901150  52.7593915  27.6520977  55.5408263  53.9510264
  28.9393420  56.2860080  52.3534594  25.0059449  52.6729910  52.9720406
  23.7869570  52.5620602  52.8288316  25.6674620  52.1385545  53.9964676
  26.6676749  52.2761531  54.0236734  25.0596759  51.2729799  55.0044694
  23.9894182  51.4680601  55.0722291  25.2667680  49.8011938  54.6157270
  24.7697914  49.1921072  55.3707946  24.7835993  49.6483801  53.6506902
  26.7426224  49.3918871  54.5190014  27.2270991  50.0879659  53.8342697
  27.1745591  49.5016350  55.5137316  27.0123906  47.6994445  53.9365779
  26.3102072  46.7935815  55.3272675  25.2609201  47.0641203  55.4451843
  26.3900622  45.7225152  55.1414160  26.8543281  47.0454281  56.2375461
  25.5756788  51.5967773  56.4077449  26.6153226  52.2359324  56.5832144
  24.8173668  51.1973331  57.4246010  23.9605412  50.7041887  57.2178211
  25.1329777  51.4817966  58.8231961  25.4712933  52.5124333  58.9301063
  23.8750676  51.2837793  59.6914623  23.5387951  50.2557308  59.5567914
  24.1633761  51.4379402  60.7312761  22.7328674  52.2484290  59.3278805
  22.1848225  51.9904793  58.4216744  22.0730374  52.1536967  60.1902895
  23.2362329  53.6921785  59.2264575  23.8912899  54.1524365  60.1806624
  23.1062191  54.2993907  58.1386745  26.2729804  50.5945060  59.3214914
  26.1423734  49.3717428  59.3350897  27.3694070  51.1912149  59.8122624
  27.4747040  52.1893943  59.6997913  28.4963274  50.4279011  60.3930477
  28.8889923  49.7291567  59.6543531  29.6267138  51.3789297  60.8192874
  30.4924652  50.7588154  61.0517352  29.8523757  52.0092994  59.9591649
  29.2910412  52.2671577  62.0325496  28.4533737  52.9103249  61.7628277
  28.9994892  51.6192092  62.8591463  30.4832563  53.1326382  62.4579266
  30.2595016  53.6045182  63.4146722  31.3650073  52.5004527  62.5625982
  30.7707588  54.1809608  61.4725875  30.1508664  54.9724671  61.5692857
  31.6912440  54.2161475  60.5350999  32.5346751  53.2518034  60.3079009
  32.5026625  52.4139090  60.8709358  33.2174359  53.3456610  59.5695730
  31.7416356  55.2739272  59.8021138  31.0893698  56.0279839  59.9635073
  32.4331785  55.3443806  59.0693768  28.0587492  49.5027312  61.5366800
  28.6646385  48.4589353  61.7546577  26.9706608  49.8744360  62.2128050
  26.6246257  50.7915665  61.9694313  26.2686811  49.1205446  63.2600553
  26.9321029  48.9384217  64.1055149  25.0714305  49.9571933  63.7456314
  24.3639173  50.0143305  62.9184309  24.3693142  49.3887111  64.9773739
  25.0761268  49.3317031  65.8051816  23.5380542  50.0372090  65.2540622
  23.9920389  48.3909885  64.7530668  25.5239187  51.2466206  64.0885024
  24.7827077  51.7754665  64.3926876  25.7685344  47.7503801  62.7887935
  25.6859228  46.8270676  63.6011550  25.4768829  47.5766246  61.4951349
  25.5612160  48.3740747  60.8810823  25.0757689  46.2895281  60.9134726
  24.1798055  45.9227079  61.4142638  24.7730454  46.4430075  59.4171178
  25.6067534  47.1067263  59.1879725  24.9060794  45.4981491  58.8901979
  23.4727207  47.0916717  58.9727415  22.6134846  47.4680551  59.7953920
  23.2375153  47.0446020  57.7396763  26.1672868  45.2046710  61.0021954
  25.8470290  44.0115701  60.9909602  27.4462489  45.5983316  61.0366110
  27.6249727  46.5899755  60.9673329  28.5926538  44.6831057  61.0325672
  28.2351077  43.6915712  60.7548636  29.6803548  45.1431042  60.0219644
  29.7467220  46.2299796  60.0709314  31.0601880  44.5311173  60.3228689
  30.9947178  43.4441999  60.2736273  31.7831822  44.8847152  59.5877847
  31.3812233  44.8304223  61.3205923  29.3521267  44.7424999  58.5636858
  30.2683220  44.8796482  57.9893364  29.0907889  43.6844638  58.5827042
  28.2203915  45.5343455  57.9127311  28.4812249  46.5924919  57.8929315
  28.0672299  45.1792918  56.8936248  27.3036918  45.3973091  58.4863011
  29.1315733  44.5010482  62.4576286  29.3588099  45.4621540  63.1914379
  29.3938035  43.2526602  62.8488620  28.9117184  42.4841347  62.4049454
  30.3613530  42.9466509  63.9174387  30.3411047  43.7738522  64.6269647
  30.0057324  41.6514385  64.6631545  30.0569839  40.8275148  63.9513798
  30.9519260  41.3740861  65.8326506  30.9008729  42.1974183  66.5451232
  30.6580377  40.4480000  66.3267085  31.9720536  41.2789289  65.4606487
  28.7184878  41.7326770  65.2225102  28.5173467  40.9145206  65.6826870
  31.7452769  42.7941051  63.2905748  31.9700902  41.8155292  62.5813349
  32.6615818  43.7352411  63.5335653  32.3674090  44.5837359  63.9957537
  34.0752731  43.6094415  63.1378389  34.1378668  43.2609764  62.1069396
  34.7946649  44.9661221  63.2429822  34.7176268  45.2995208  64.2778782
  35.8425921  44.8026930  62.9915074  34.2082622  46.0372837  62.3164480
  33.1358968  46.0699737  62.5089699  34.6579612  46.9870672  62.6059029
  34.4877676  45.7603817  60.5473838  36.1757351  46.4057247  60.3781736
  36.8479016  45.8401244  61.0234546  36.5002492  46.3086026  59.3421434
  36.1941899  47.4565561  60.6671615  34.7920564  42.5854910  64.0277940
  34.5199373  42.5263213  65.2276462  35.7090021  41.7945834  63.4588153
  35.7681166  41.8215568  62.4509080  36.4791082  40.7637911  64.1762745
  36.4982681  40.9856057  65.2432939  35.8237472  39.3796400  63.9714143
  35.9170958  39.1205952  62.9167670  36.3767103  38.6579072  64.5726078
  34.3327075  39.3535400  64.3779923  34.2432357  39.9123370  65.3095724
  33.7759824  39.8653547  63.5930050  33.7626637  37.9421662  64.5717884
  34.2981548  37.4354058  65.3746223  32.7040548  38.0036598  64.8241080
  33.9310779  37.1576262  63.2742976  33.2498403  37.5952389  62.5445641
  34.9594087  37.3027926  62.9432966  33.6540981  35.7111109  63.4009180
  32.7011391  35.5763671  63.7072072  33.7863918  35.2633546  62.5053105
  34.2855268  35.3053346  64.0767453  37.9799238  40.8477724  63.8413287
  38.5661643  41.9215221  63.9413924  38.6344672  39.7264982  63.5334244
  38.1017146  38.8684343  63.5328715  40.0861437  39.6472693  63.2971385
  40.6248859  40.2979900  63.9859191  40.5443988  38.1966775  63.5308381
  41.6228466  38.0520574  63.4665372  40.2024223  37.9357474  64.5323707
  39.9181204  37.1994705  62.5873830  40.3145290  36.9997636  61.2670276
  39.4525280  36.1080399  60.7579009  39.5780832  35.7994618  59.7200596
  38.5485797  35.7468733  61.6796206  37.7921526  35.0892864  61.5551320
  38.8197041  36.4274766  62.8457611  38.1912977  36.2766534  63.7235189
  40.4933488  40.1652034  61.9034695  39.6596976  40.2770789  61.0047290
  41.7825461  40.4835442  61.7121703  42.3884131  40.5493965  62.5175820
  42.3456117  40.7986605  60.3861062  41.6617269  41.4623303  59.8570097
  43.7133859  41.4877505  60.4932391  44.2717891  41.0182251  61.3030730
  44.2457363  41.3419729  59.5533178  43.5729514  42.9857184  60.7724904
  42.8999367  43.4231370  60.0350509  43.1567839  43.1237092  61.7704209
  44.9377520  43.6745664  60.6893469  45.5769543  43.3340086  61.5039264
  45.4128302  43.4457241  59.7353913  44.7275044  45.1834801  60.8041739
  43.9484182  45.4729646  60.0989619  44.3983124  45.4047238  61.8194488
  45.9605326  45.9389837  60.5117123  46.2654988  45.7344466  59.5708298
  45.7777065  46.9284764  60.5987680  46.6824516  45.6712009  61.1653365
  42.4789475  39.5432093  59.5240889  43.1058713  38.5661929  59.9375942
  41.9896388  39.6123722  58.2859756  41.4719345  40.4376087  58.0193929
  42.0813905  38.5112848  57.3270428  41.6810791  37.6032417  57.7779394
  41.2824651  38.8186472  56.0475583  41.6901337  39.7375823  55.6262938
  41.4716977  37.9909799  55.3639956  39.7676974  38.9773322  56.2523604
  39.5735803  39.9030570  56.7940734  39.0595165  39.0212839  54.8997030
  39.2528019  38.0956364  54.3575625  37.9864290  39.1338999  55.0543041
  39.4332408  39.8657243  54.3206080  39.1756615  37.8134211  57.0423340
  39.6488824  37.7611138  58.0228570  38.1031921  37.9648843  57.1646843
  39.3514787  36.8818207  56.5044605  43.5323000  38.1590287  56.9881871
  44.3994385  39.0314991  56.8849383  43.7910729  36.8573220  56.8329059
  43.0211399  36.2079269  56.9076626  45.1286119  36.3214157  56.5605461
  45.0531036  35.2342690  56.5379713  45.4390021  36.6839724  55.5805921
  46.1820827  36.7272957  57.5997768  47.3544266  36.8401194  57.2609041
  45.7791591  37.0520859  58.8349986  44.8056213  36.9317799  59.0755186
  46.6895935  37.5768868  59.8600739  46.1299927  37.6424592  60.7931582
  47.5028413  36.8601792  59.9743436  47.2810362  38.9559516  59.5341709
  48.3439221  39.2935652  60.0438536  46.6284913  39.7491742  58.6744656
  45.7265730  39.4402042  58.3410285  47.1466837  41.0371240  58.1906023
  46.3082525  41.7331255  58.1638759  47.8821703  41.3828156  58.9170017
  47.7995526  40.9887824  56.8037211  48.2656683  42.0231466  56.3325197
  47.7594358  39.8401473  56.1141263  47.4307744  39.0421108  56.6387394
  48.1848061  39.6313501  54.7129836  49.2695710  39.6478077  54.6075635
  47.6726853  38.2293821  54.3221590  48.1532937  37.5501619  55.0262718
  46.6011485  38.2583217  54.5198238  47.9158167  37.7344015  52.8848910
  47.5673016  38.4743139  52.1643581  48.9902351  37.5924868  52.7683264
  47.2108251  36.4007327  52.5986038  46.2518229  36.0065313  53.2480759
  47.6245012  35.6624912  51.5926229  47.1686579  34.7832615  51.3944727
  48.3962498  35.9779578  51.0225471  47.6678297  40.7037197  53.7264117
  48.3238327  40.9973574  52.7291474  46.5093588  41.3019458  54.0256768
  46.0420459  40.9576468  54.8522216  45.8317221  42.3251228  53.2175015
  46.3571933  42.4811513  52.2753580  44.4054105  41.8471796  52.9104276
  43.8473360  41.9644487  53.8393518  43.9914241  42.5117422  52.1520927
  44.2996784  40.4104142  52.4353569  44.0404886  39.3843288  53.3652894
  43.8889258  39.6282131  54.4167877  43.9772081  38.0451002  52.9373404
  43.7568924  37.2539470  53.6540269  44.1592813  37.7315027  51.5752927
  44.1350221  36.4378971  51.1678346  43.9873632  35.8205013  51.8879866
  44.4063757  38.7603868  50.6427393  44.5372265  38.5207044  49.5874996
  44.4839880  40.0981155  51.0758216  44.6869723  40.8925615  50.3576622
  45.8288040  43.7274161  53.8668157  45.0716090  44.6020196  53.4506626
  46.6405505  43.9640473  54.9030234  47.2562097  43.2226063  55.2052294
  46.6843867  45.2412961  55.6231255  47.5853493  45.2532935  56.2364945
  46.7360252  46.0433669  54.8868407  45.4643478  45.4686471  56.5239727
  45.1974633  44.6842067  57.4353447  44.7364663  46.5670514  56.3103337
  45.1143910  47.2452677  55.6643501  43.5014642  46.9080492  57.0379801
  43.5449960  46.4980908  58.0470085  43.3281634  48.4414400  57.1347293
  43.3152907  48.8120774  56.1097603  42.3539353  48.6097996  57.5936787
  44.4065671  49.1872539  57.9350368  45.3443282  49.2983882  57.3906527
  43.9485036  50.1667502  58.0723830  44.6827512  48.5562862  59.3042162
  43.7532783  48.0180080  59.9493423  45.8678134  48.4734515  59.6916320
  42.2531969  46.2282763  56.4427066  41.2867380  46.8955974  56.0799730
  42.2531493  44.8937975  56.3373348  43.1303074  44.4038702  56.4406024
  41.0580760  44.1164038  55.9497668  40.2092521  44.7993195  55.9147894
  41.1889104  43.4238208  54.5812713  41.9561691  42.6529691  54.6533891
  39.8600362  42.7844077  54.1523186  39.0923447  43.5547664  54.0795300
  39.9842262  42.3031484  53.1822326  39.5590695  42.0408596  54.8903274
  41.5908073  44.3961803  53.4665006  42.5534071  44.8475231  53.7069033
  41.6689243  43.8558769  52.5230656  40.8362785  45.1775542  53.3757151
  40.6877971  43.1177742  57.0428078  41.5223853  42.3326299  57.4914936
  39.4232888  43.1416720  57.4539437  38.8005199  43.7462105  56.9374251
  38.8904489  42.4220056  58.6087782  39.6724243  41.8314507  59.0861236
  38.3533423  43.4405318  59.6271053  37.5947207  44.0299961  59.1122029
  37.8867988  42.8718526  60.4314939  39.4087950  44.3698817  60.2092712
  39.8740378  45.4827945  59.4753391  39.4548925  45.6987043  58.4925881
  40.8785070  46.3138688  60.0111956  41.2422400  47.1676883  59.4395380
  41.3944481  46.0555570  61.2991028  42.3737623  46.8400788  61.8189250
  42.6443053  47.5447735  61.2257880  40.9093447  44.9600169  62.0421313
  41.2954580  44.7694376  63.0434787  39.9280939  44.1129510  61.4930774
  39.5681852  43.2555167  62.0617357  37.7993726  41.4242687  58.2106997
  37.0514168  41.6533110  57.2586935  37.6802942  40.3334358  58.9689768
  38.4687854  40.0291098  59.5219384  36.4613571  39.5272331  58.9976714
  36.1358778  39.3156722  57.9791409  36.7115815  38.1909445  59.7220674
  37.5753575  37.7169507  59.2558914  36.9393199  38.4154440  60.7641016
  35.5072633  37.2392155  59.6549580  34.7388864  37.7159374  60.2635909
  35.1358626  37.1087197  58.6385272  35.8549943  35.8695989  60.2516720
  35.4199398  35.5925973  61.3947239  36.6242604  35.1093865  59.6342938
  35.3579804  40.3324476  59.6921723  35.5100366  40.7517245  60.8410712
  34.2434816  40.5452801  59.0007971  34.2566268  40.3151897  58.0174431
  33.0156713  41.0845399  59.5670079  33.1960153  41.3737563  60.6023480
  32.7115811  41.9601128  58.9934221  31.8922399  40.0502095  59.5283122
  31.8941774  39.1492102  58.6919729  30.8983166  40.1946922  60.4032638
  31.0577722  40.7610689  61.2241723  29.6033050  39.5009337  60.2731789
  29.6184597  38.8746146  59.3812181  29.2814839  38.6148973  61.4913622
  29.2837217  39.2404817  62.3839642  27.9115187  37.9351497  61.3463227
  27.9086651  37.3089861  60.4541276  27.7169214  37.3179130  62.2233923
  27.1355323  38.6955537  61.2583876  30.3405653  37.5205899  61.6727541
  31.3169018  37.9807667  61.8247622  30.0882236  36.9101681  62.5398230
  30.3703604  36.8919766  60.7827775  28.5110428  40.5330669  60.0400240
  28.2440252  41.3516880  60.9212675  27.8771964  40.4980690  58.8681934
  28.2591885  39.9038755  58.1463101  26.7304807  41.3387565  58.5376868
  26.8426358  42.3210290  58.9966651  26.6310519  41.5169595  57.0139639
  27.5932337  41.7293154  56.5479054  26.2509899  40.5647182  56.6439780
  25.6787526  42.5750059  56.5349535  25.1390112  43.5510869  57.2961552
  25.3496283  43.5066625  58.3646900  24.4082041  44.4263023  56.5150770
  23.9468379  45.2478632  56.8787779  24.4331294  44.0421333  55.1912810
  23.8989674  44.6031314  54.0218431  23.3515100  45.5396168  54.1285401
  24.0936228  43.9412395  52.7964067  23.6865418  44.3437341  51.8688384
  24.8239410  42.7396990  52.7558982  24.9702200  42.1927842  51.8244552
  25.3903131  42.2080264  53.9308603  25.9656009  41.2902413  53.8091427
  25.2178392  42.8471940  55.1765595  25.4555313  40.7443129  59.1543803
  24.8154924  39.8533398  58.5877886  25.1049858  41.2280890  60.3531328
  25.5613672  42.0838320  60.6351245  24.1453345  40.6053485  61.2877073
  24.5274226  39.6506819  61.6492591  23.9421123  41.5406134  62.4908986
  23.5557763  42.4825245  62.1014796  23.1916208  41.0779088  63.1318096
  25.2176461  41.8083671  63.3067390  25.4004225  40.9699415  63.9788521
  26.0639590  41.9213863  62.6291823  25.0449046  43.0933578  64.1276637
  24.7439896  43.9101656  63.4716345  24.2818985  42.9412355  64.8910639
  26.3716346  43.4413667  64.7971345  26.5384724  42.7319041  65.6076458
  27.1631679  43.3371296  64.0550369  26.3812352  44.8174417  65.3374080
  25.6481310  44.9141163  66.0253848  27.2750502  45.0032450  65.7694635
  26.2270822  45.4750258  64.5864625  22.7821159  40.3071618  60.6631734
  22.2394788  39.2315454  60.8803105  22.2700008  41.2370375  59.8442527
  22.8334049  42.0650700  59.7137253  20.9719122  41.1542390  59.1407504
  20.1468394  41.2244988  59.8495646  20.8674669  42.3238410  58.1474658
  21.8076399  42.3751075  57.5983340  20.0554492  42.0980057  57.4562887
  20.5994193  43.6703428  58.8271880  19.6178973  43.6442014  59.3005083
  21.3628419  43.8481573  59.5845980  20.6363573  44.7984956  57.7903752
  21.6540058  44.9224608  57.4200738  19.9750844  44.5538186  56.9591407
  20.1701669  46.1010605  58.4466885  19.0849602  46.0662007  58.5426669
  20.6201589  46.1648207  59.4374160  20.5569690  47.2884274  57.6521458
  20.1397472  47.2297529  56.7342226  20.2325551  48.1245646  58.1166134
  21.5625344  47.3211505  57.5634536  20.7709759  39.8531538  58.3578761
  19.6429589  39.3935358  58.2275690  21.8607791  39.2875067  57.8421802
  22.7402047  39.7506581  58.0216257  21.8604735  38.1140951  56.9683513
  20.8609751  37.6853900  56.8954544  22.3106509  38.5540434  55.5636094
  23.3665010  38.8095448  55.6530459  22.1992337  37.7009194  54.8943816
  21.5480324  39.7423946  55.0004394  22.1228601  41.0281048  55.0269606
  23.1206256  41.1675593  55.4430327  21.4124585  42.1307217  54.5181509
  21.8584546  43.1248043  54.5496030  20.1227044  41.9536909  53.9777431
  19.4519786  43.0181881  53.4656606  19.9486249  43.8376868  53.5236609
  19.5410248  40.6696289  53.9632359  18.5391269  40.5306762  53.5570424
  20.2535633  39.5665695  54.4731584  19.8034892  38.5739114  54.4603812
  22.7239627  36.9668119  57.5204064  22.9732894  35.9985128  56.8059247
  23.2380411  37.0967329  58.7541583  22.9715317  37.9319880  59.2555774
  24.2564303  36.2122363  59.3576741  24.7154285  36.7117402  60.2108539
  23.6251595  34.9010779  59.8391613  23.1466936  34.3992189  58.9981458
  24.4005181  34.2563614  60.2529966  22.6588634  35.1757922  60.8359426
  22.2653203  34.3529973  61.1354958  25.4840048  35.9609459  58.4624944
  26.1663979  34.9451362  58.5923304  25.7558943  36.8721619  57.5245160
  25.2284701  37.7331838  57.5482692  26.7037068  36.6710124  56.4325213
  26.7805376  35.6163063  56.1683409  26.1827149  37.4501060  55.2058826
  25.1672978  37.0970283  55.0259845  26.1560867  38.5022088  55.4895562
  27.0179208  37.2858113  53.9224187  28.0640771  37.4671626  54.1689333
  26.8708407  35.8866240  53.3242212  25.8249489  35.7047068  53.0770063
  27.4755795  35.8118942  52.4204472  27.2069786  35.1442553  54.0480999
  26.5705128  38.3025630  52.8736142  26.7072430  39.3113284  53.2632253
  27.1666215  38.1789338  51.9694729  25.5180038  38.1438896  52.6387812
  28.1142275  37.1006737  56.8486663  28.3188112  38.2573923  57.2220946
  29.1016536  36.2106568  56.7402566  28.8882505  35.2294444  56.6317186
  30.5136894  36.6100303  56.8431248  30.6033403  37.2020997  57.7539023
  31.4665556  35.4114691  56.9417008  31.4453392  34.8843745  55.9878552
  32.9017404  35.8331746  57.2588034  32.9238277  36.3599607  58.2127993
  33.5361942  34.9488246  57.3179021  33.2697081  36.4917760  56.4720732
  31.0690530  34.5758736  58.0017607  31.6671094  33.8272337  58.0606432
  30.8870744  37.4825212  55.6445547  30.6050009  37.1353451  54.4980953
  31.5326551  38.6152197  55.9057170  31.7143127  38.8044309  56.8810626
  31.9198472  39.6299265  54.9150893  31.9236742  39.2239318  53.9035297
  30.9774346  40.8543118  54.9522772  31.3787762  41.6238634  54.2928727
  29.5634333  40.4766926  54.4952115  29.1612234  39.7074623  55.1544633
  28.9220188  41.3572460  54.5314563  29.6004123  40.0965353  53.4743224
  30.8798401  41.5328061  56.3259314  31.8668608  41.8804005  56.6310059
  30.1990490  42.3818580  56.2648255  30.5042213  40.8185811  57.0586619
  33.3726754  40.0440915  55.1324179  33.8813290  39.9733994  56.2510094
  34.0530983  40.4810478  54.0751497  33.6984580  40.3027912  53.1464118
  35.3554201  41.1297073  54.2065180  35.8195541  40.8427161  55.1500830
  36.2641950  40.6832978  53.0587333  35.8171667  40.9717956  52.1074001
  37.2394320  41.1593727  53.1605459  36.3841043  39.6003557  53.0896777
  35.1676768  42.6535713  54.2697016  34.4184890  43.2215350  53.4727625
  35.8361183  43.3183648  55.2157166  36.4124511  42.7861492  55.8518663
  35.7093389  44.7695211  55.4357632  35.1418996  45.2261852  54.6248565
  35.0103634  45.0957988  56.7709553  35.6565352  44.7984960  57.5968926
  34.7268678  46.6020402  56.8600223  34.0803303  46.9000246  56.0346161
  34.2330818  46.8240258  57.8060657  35.6656331  47.1529817  56.8027083
  33.6961625  44.3194552  56.9243425  33.9003621  43.2491373  56.8956341
  33.2317699  44.5747976  57.8768337  33.0212476  44.5820283  56.1096978
  37.0732517  45.4413242  55.3610272  37.9092829  45.2478340  56.2425227
  37.3023597  46.2289498  54.3068975  36.6374693  46.1920736  53.5475160
  38.4933409  47.0701127  54.1480904  39.3538660  46.6063797  54.6303223
  38.7991372  47.2356690  52.6527002  38.8440709  46.2405833  52.2101115
  37.9777094  47.7951015  52.2050489  40.1223515  47.9722710  52.3916266
  40.0381741  49.0000808  52.7446448  40.9266759  47.4690699  52.9282391
  40.4318254  47.9717576  50.8896527  40.4799070  46.9387739  50.5450778
  39.6272190  48.4908700  50.3688550  41.7633868  48.6699934  50.5964020
  41.6989236  49.7083427  50.9216340  42.5574395  48.1658849  51.1472686
  42.0629429  48.6248235  49.1478362  41.3274904  49.0922659  48.6372416
  42.9426249  49.0886282  48.9713569  42.1231411  47.6627510  48.8463539
  38.2740040  48.4019928  54.8632594  37.3461511  49.1365685  54.5277174
  39.1278370  48.7010708  55.8344970  39.8672898  48.0318898  55.9942022
  39.0552109  49.8815517  56.7082952  38.0786587  50.3518342  56.5930586
  39.2292494  49.4634067  58.1793854  40.2186359  49.0151639  58.2704517
  39.0980171  50.6142570  59.1763962  38.1086525  51.0627305  59.0862369
  39.2336675  50.2353429  60.1893731  39.8580018  51.3666643  58.9656661
  38.2389840  48.5274147  58.5369250  38.3557940  48.2730065  59.4552018
  40.1172879  50.9129548  56.3226878  41.2191773  50.5450495  55.9181048
  39.8274310  52.2067382  56.4778920  38.8580425  52.4758825  56.5670355
  40.8391588  53.2670257  56.3936343  41.7567413  52.8845546  55.9465802
  40.3019097  54.4040068  55.5139051  39.9035390  53.9552400  54.6039555
  39.4933052  54.8822802  56.0666377  41.3623050  55.4554770  55.1448953
  41.7595350  55.8607224  56.0755324  42.5117107  54.8917900  54.3016773
  42.1152870  54.4867520  53.3706073  43.2227019  55.6870553  54.0777456
  43.0155949  54.1001796  54.8562528  40.7046172  56.5642202  54.3360261
  39.9180130  57.0300810  54.9295975  41.4509914  57.3131149  54.0711042
  40.2731295  56.1446948  53.4272270  41.3014113  53.7455144  57.7854864
  40.4788615  54.0834786  58.6347466  42.6230068  53.7693765  57.9989928
  43.1798384  53.3169767  57.2880974  43.3022848  54.2532018  59.2179824
  42.7638037  53.9109054  60.1017077  44.7470889  53.7133781  59.2808505
  45.2636196  54.2784752  60.0567117  44.6821659  52.6663751  59.5769414
  45.5289617  53.8250867  57.9579061  45.0277009  53.2211430  57.2015394
  45.5376719  54.8682750  57.6420193  46.9715764  53.3317668  58.1324237
  47.5134434  54.0723128  58.7207016  46.9426639  52.3872833  58.6757600
  47.6837987  53.1264059  56.7866172  48.6416632  52.6430676  56.9789197
  47.0652908  52.4737448  56.1705160  47.9104638  54.4046663  56.0768889
  48.4839260  55.0094172  56.6474300  48.3792082  54.2246357  55.2005513
  47.0229800  54.8524941  55.8982218  43.2349874  55.7827827  59.3819532
  43.2072515  56.5273198  58.4075770  43.1814511  56.2271065  60.6372306
  43.4909770  55.5921375  61.3591083  42.6737947  57.5533097  61.0419971
  41.7471102  57.7909209  60.5196028  42.3917347  57.5206625  62.5518360
  43.3223068  57.3019133  63.0755568  42.0240858  58.4997574  62.8589315
  41.3436356  56.4474217  62.8984662  40.5322099  56.5056899  62.1730050
  41.8446850  55.4838567  62.8057777  40.7733276  56.5929815  64.3164334
  39.5736731  56.2673515  64.4739843  41.5357135  56.9965315  65.2199361
  43.5980843  58.7387505  60.7539448  43.1403328  59.8552178  60.5293289
  44.9021190  58.4976942  60.7709548  45.1822162  57.5715628  61.0606539
  45.9481190  59.4733235  60.4587423  45.7452303  60.4321825  60.9357379
  47.2898153  58.9227488  61.0046510  48.0484666  59.6220745  60.6532382
  47.2342069  58.9641938  62.0924424  47.6657475  57.4904509  60.5626197
  48.8060353  57.0656376  60.8506377  46.8391928  56.8072200  59.9137600
  46.0485703  59.7690588  58.9439125  46.6626535  60.7541321  58.5392245
  45.5332438  58.8530901  58.1108568  46.1422769  58.5555813  58.8596335
  45.9579661  58.6018847  56.7246513  45.9366366  59.4816238  56.0814536
  47.3843778  58.0064576  56.7000896  47.5569390  57.7287580  55.6602791
  48.5412815  58.8832215  57.1932589  48.3696448  59.1609557  58.2332128
  49.4766447  58.3290313  57.1153616  48.6012632  59.7839307  56.5823369
  47.4377782  56.7845346  57.3976751  48.3322880  56.4373878  57.3669893
  45.7387336  59.7248206  55.6896991  44.6773722  60.3366013  55.6129056
  46.6947212  59.8862780  54.7647924  47.5677883  59.4166570  54.9579482
  46.5795472  60.6563854  53.5218743  46.1940050  61.6563121  53.7208790
  47.9783356  60.7846489  52.8954298  48.2942820  59.7802791  52.6134399
  47.8711776  61.3962171  51.9995495  49.0331601  61.4123686  53.8207644
  48.8116219  62.4774647  53.8885293  48.9160192  60.9542235  54.8028454
  50.7457591  61.1936014  53.2607541  50.9813863  59.4121846  53.5253199
  50.2570891  58.8568989  52.9293750  51.9905772  59.1301212  53.2251955
  50.8380979  59.1789494  54.5803891  45.6596368  59.9797572  52.4905814
  45.0820593  60.6647978  51.6550949  45.5231744  58.6474033  52.5473377
  45.8593692  58.1878066  53.3815098  45.0379570  57.8091387  51.4339616
  45.3782428  58.2164924  50.4819281  45.5851077  56.3782978  51.5803086
  45.0316709  55.9154860  52.3973840  45.3566926  55.8608988  50.6485227
  47.0979809  56.2809820  51.8645098  47.5830842  55.7702281  51.0327009
  47.4933067  57.2932518  51.9489292  47.3727465  55.5154045  53.1640316
  48.1356738  54.5119188  53.1513252  46.8290276  55.9257522  54.2120781
  43.5027343  57.8033429  51.2496278  42.9206714  56.8714095  50.6884257
  42.8249808  58.8298186  51.7728819  43.3699781  59.5062054  52.2882246
  41.3671989  59.0198326  51.6974125  40.8317534  58.1776981  52.1358265
  40.9679395  60.3074719  52.4547083  41.6619186  61.0948750  52.1606188
  39.5314284  60.7545806  52.1557509  38.8367933  59.9678232  52.4500225
  39.3091097  61.6629587  52.7156831  39.4261328  60.9511298  51.0888006
  41.1024246  60.1204239  53.9705054  42.1361127  59.8777476  54.2168774
  40.8151996  61.0414981  54.4776777  40.4517083  59.3088550  54.2961203
  40.8847603  59.0907980  50.2536307  39.8722943  58.4865527  49.9041708
  41.5983063  59.8356363  49.4168994  42.4570204  60.2523351  49.7471592
  41.1445467  60.1624409  48.0700754  40.0880292  60.4303132  48.0593806
  41.9626765  61.3736244  47.5989182  42.0148986  62.0771514  48.4298345
  42.9653596  61.0190353  47.3601854  41.3656081  62.0713509  46.3781757
  42.0764110  62.8481757  46.0963896  41.3011829  61.3317280  45.5801114
  39.9798230  62.7023108  46.6057347  39.5172192  62.7936760  47.7576198
  39.3902241  63.0790983  45.5629623  41.2445365  58.9531722  47.1251050
  40.3712667  58.7335102  46.2829615  42.2683251  58.1167793  47.3132476
  43.0152151  58.4394653  47.9116859  42.4032224  56.8036088  46.6822801
  42.2715071  56.9065528  45.6051762  43.7880130  56.1866129  46.9519062
  43.8127169  55.9368899  48.0126264  43.8373894  55.2711150  46.3623932
  44.9888746  57.0818035  46.6087017  45.8058735  56.4968948  46.1862146
  44.6295992  57.7931978  45.8651033  45.4901575  57.8426069  47.8437481
  44.7563021  58.7473613  48.3059242  46.5732656  57.4737507  48.3527577
  41.3165146  55.8370857  47.1661316  40.6679656  55.1979639  46.3403923
  41.0664783  55.7647644  48.4800995  41.6466459  56.3063260  49.1047721
  40.0461402  54.8844676  49.0648872  40.2236877  53.8464414  48.7836794
  40.1228745  54.9986729  50.5965653  41.1466106  54.8531286  50.9413557
  39.7852252  55.9973242  50.8736730  39.2599884  54.0178061  51.3710147
  39.8508998  52.8903283  51.9735688  40.9165040  52.7035014  51.8405902
  39.0738845  52.0085597  52.7429448  39.5404499  51.1489387  53.2240572
  37.6965054  52.2344757  52.8921917  37.0938343  51.5519624  53.4914104
  37.0946758  53.3407469  52.2689236  36.0202666  53.4993291  52.3616422
  37.8769393  54.2426850  51.5262430  37.4141887  55.1174711  51.0693938
  38.6363019  55.2116835  48.5430524  37.8755700  54.3134914  48.1819651
  38.2853991  56.4995355  48.4455924  38.9013963  57.1975416  48.8372991
  37.0055028  56.9398583  47.8809683  36.1832175  56.3794916  48.3258675
  36.7994627  58.4376690  48.1800913  37.6946533  58.9499351  47.8275063
  35.9402624  58.7636870  47.5939283  36.5655625  58.7763050  49.6668789
  37.4011596  58.4060319  50.2608285  36.4561984  60.2913177  49.8312472
  35.6204745  60.6622879  49.2379130  36.2908961  60.5323862  50.8813243
  37.3790901  60.7616784  49.4919359  35.2870920  58.1449993  50.2253592
  35.3482838  57.0603142  50.1369666  35.1749882  58.4177564  51.2747102
  34.4266876  58.5069207  49.6624950  36.8873684  56.6519918  46.3732245
  35.7960771  56.3369136  45.8946913  37.9879936  56.7143994  45.6155635
  38.8292521  57.0949305  46.0249284  37.9864685  56.4151271  44.1687312
  37.0465231  56.7325105  43.7172119  39.1384873  57.1728904  43.4890714
  40.0617026  57.0596671  44.0573613  39.2911997  56.8097665  42.4727447
  38.7409513  58.6580345  43.4481550  37.9437765  58.7480050  42.7102400
  38.3507738  58.9044843  44.4356397  39.8750045  59.6215774  43.0932629
  40.7571585  59.4535808  43.7110657  40.1505230  59.5524234  42.0409289
  39.3083393  61.0138149  43.3814857  38.5162344  61.2012581  42.6565474
  38.8840095  60.9930634  44.3852849  40.3174520  62.0882838  43.2962049
  40.7104605  62.1079628  42.3660131  39.8808310  62.9768238  43.4961021
  41.0513076  61.9150115  43.9681661  37.9702300  54.9140911  43.8808694
  37.2570999  54.4855453  42.9770913  38.6283252  54.1049864  44.7056325
  39.3421729  54.5152768  45.2905963  38.4406714  52.6504485  44.7537004
  38.6543561  52.1982364  43.7852262  39.4202339  52.0721697  45.7943137
  40.4326321  52.2491922  45.4312543  39.2698771  52.6136089  46.7283032
  39.2196496  50.5733389  46.0356067  38.1675274  50.4255893  46.2791428
  39.4519353  50.0588765  45.1031524  40.0900987  50.0045192  47.1636831
  41.1036757  50.6108750  47.5747491  39.7737015  48.9075553  47.6756723
  36.9716712  52.2902525  45.0570357  36.3544448  51.5129608  44.3238002
  36.3763266  52.9192990  46.0781822  36.9466237  53.5046059  46.6717110
  34.9661634  52.7457434  46.4245120  34.7934408  51.6834783  46.5973091
  34.6763987  53.5070508  47.7238185  34.8361691  54.5733818  47.5640953
  33.6423008  53.3359227  48.0229122  35.3444765  53.1537353  48.5092735
  34.0014909  53.1921299  45.3082701  32.9042688  52.6492015  45.2151120
  34.3810279  54.1520890  44.4570449  35.1901499  54.7081762  44.6940847
  33.6239820  54.5056703  43.2557008  32.5681126  54.5577739  43.5212647
  34.0742948  55.8865848  42.7639034  35.1274558  55.8480770  42.4855708
  33.4802262  56.1755921  41.8969216  33.9357411  56.6190353  43.5591508
  33.7470249  53.4251006  42.1639716  32.7324856  52.9204390  41.6900457
  34.9695062  53.0015591  41.8157376  35.7677894  53.4613454  42.2297906
  35.2115126  51.9720562  40.7827697  34.7671836  52.2899411  39.8395729
  36.7253766  51.7584540  40.5677561  37.1781445  51.6115616  41.5483289
  37.0504424  50.5557739  39.6685932  36.5983646  50.7021673  38.6876265
  38.1311515  50.4642182  39.5600298  36.6527518  49.6464914  40.1193139
  37.3517825  52.9920336  39.9030262  37.2040077  53.8635004  40.5408430
  38.4191716  52.8249292  39.7586089  36.8776319  53.1649300  38.9369057
  34.5044879  50.6499059  41.1061129  33.9278336  50.0333162  40.2114935
  34.4728710  50.2329005  42.3767698  35.0423723  50.7090108  43.0616687
  33.7578969  49.0152830  42.7892797  33.9863523  48.2023092  42.1000910
  34.1822168  48.5935576  44.2034191  34.5236170  49.4702141  44.7538903
  33.3297675  48.1508897  44.7186620  35.3166000  47.5692447  44.1215841
  34.9930106  46.7808347  43.4420250  36.1833086  48.0784210  43.7000894
  35.7730933  46.8344469  45.7107222  36.9198719  48.1057255  46.2804202
  36.3975510  49.0594342  46.3560474  37.3132744  47.8289519  47.2585467
  37.7425282  48.1978415  45.5712992  32.2246156  49.0860845  42.6667124
  31.5843285  48.0401790  42.5844438  31.6154217  50.2783842  42.6057687
  32.1517331  51.1073378  42.8186190  30.1711036  50.4308499  42.3223862
  29.6000119  49.6767464  42.8639408  29.6969876  51.8253167  42.7734577
  30.3113163  52.5787596  42.2804838  28.6565619  51.9533101  42.4747402
  29.8155574  51.9853461  44.2987373  29.0685729  51.3388906  44.7594002
  30.8119963  51.6538434  44.5908290  29.5997126  53.4311199  44.7676279
  30.2923730  54.0952564  44.2506722  28.5757322  53.7396380  44.5569619
  29.8544240  53.5029625  46.2786047  29.1966336  52.7838451  46.7667464
  30.8929449  53.2259219  46.4597729  29.6011815  54.8565062  46.8284646
  28.6388034  55.1132332  46.6610751  29.7813459  54.8552793  47.8222650
  30.2109045  55.5229406  46.3765772  29.8556855  50.1873370  40.8399579
  28.7552138  49.7378628  40.5071381  30.8469563  50.4273376  39.9791688
  31.6951665  50.7844207  40.3952583  30.7839784  50.3124898  38.5187673
  29.7625549  50.4621715  38.1689265  31.6863313  51.3937469  37.8845683
  32.6984096  51.2370328  38.2577137  31.6702309  51.2431045  36.8051482
  31.2376723  52.8277817  38.2081395  31.4556727  53.1029670  39.2400551
  31.8105052  53.4646289  37.5340569  29.7395675  53.0124398  37.9356945
  29.2918086  52.5068183  36.8745428  29.0512052  53.5742529  38.8148785
  31.1378717  48.9264391  37.9550253  31.0700426  48.7372724  36.7367789
  31.4867425  47.9409342  38.7876099  31.6609680  48.1831893  39.7525230
  31.8103582  46.5744623  38.3410044  31.4737326  46.3776652  37.3231373
  33.3169745  46.2535680  38.4557875  33.4898988  45.2113374  38.1875471
  34.1052012  47.1654668  37.5016401  33.9331325  48.2079205  37.7695644
  35.1690467  46.9415059  37.5802212  33.7731037  46.9944691  36.4776429
  33.8398561  46.3288272  39.9034076  33.5672960  47.3122877  40.2863140
  33.3130690  45.5604172  40.4692176  35.3524409  46.1246767  40.0504437
  35.8799381  46.8930481  39.4852428  35.6284312  46.1944755  41.1026113
  35.6257114  45.1411778  39.6681440  30.9176379  45.5307835  39.0120826
  30.7547437  45.4917622  40.2276820  30.2894814  44.6971521  38.1767964
  30.5319148  44.7980624  37.2015311  29.2748381  43.6988253  38.5428845
  29.4686604  43.3235783  39.5477337  27.8617778  44.3350138  38.5157816
  27.6700546  44.6671151  37.4954629  27.1460798  43.5582358  38.7850255
  27.7125099  45.5252732  39.4786215  27.9152233  45.1510806  40.4821094
  28.4733077  46.2556323  39.2031865  26.3332466  46.1902991  39.4511061
  26.0648810  46.4941186  38.4392895  25.5677533  45.5212000  39.8440768
  26.4360860  47.4321288  40.3475575  26.5802651  47.0899849  41.3723748
  27.3100624  47.9998474  40.0282457  25.2344310  48.2964774  40.2802083
  24.4245390  47.7707314  40.5764613  25.3588281  49.0938565  40.8875071
  25.1008970  48.6139695  39.3307524  29.3811369  42.5343763  37.5559929
  28.9131887  42.6485512  36.4268505  30.0374067  41.4513068  37.9707354
  30.3729780  41.4736459  38.9230967  30.3150204  40.2557008  37.1619011
  29.4952555  40.0645599  36.4694057  31.6020690  40.4855210  36.3491733
  31.5652384  41.4240145  35.7960252  32.4442605  40.5048706  37.0408663
  31.8952512  39.4044126  35.3438983  31.2250298  39.2381243  34.1322097
  31.7650154  38.1522174  33.5605106  31.3980310  37.8448535  32.5812512
  32.7089013  37.6228000  34.3520822  33.2531595  36.7917369  34.1698268
  32.8207151  38.4100622  35.4783224  33.5540645  38.1624222  36.2457690
  30.4817949  39.0453503  38.0956907  31.1068054  39.2144166  39.1427913
  29.9916991  37.8308565  37.7694518  29.2806051  37.4651148  36.5551555
  29.7329535  37.9918001  35.7148676  28.2390713  37.7701908  36.6563232
  29.4355022  35.9518844  36.4496393  30.3844326  35.6801327  35.9872745
  28.6161935  35.5069005  35.8849944  29.3851836  35.5211624  37.9151913
  29.9133809  34.5860874  38.1015817  28.3514359  35.4264140  38.2475888
  30.0739015  36.6681658  38.6671148  29.4905358  36.9110885  39.5552427
  31.5032507  36.2823453  39.0832621  31.6884834  35.7124468  40.1571324
  32.5069132  36.6209605  38.2675353  32.2425542  36.9363307  37.3451713
  33.9263091  36.3609653  38.5335595  34.0420905  35.7914057  39.4556743
  34.5184198  35.5437635  37.3737367  34.4277399  36.1599550  36.4792064
  35.5668242  35.2949310  37.5381471  33.7440958  34.2594100  37.1575067
  32.9613164  34.1386387  36.2330460  33.8898352  33.2991961  38.0388253
  33.3872570  32.4308370  37.9227762  34.5039731  33.4325458  38.8294917
  34.7433822  37.6091824  38.9381924  35.9706409  37.5688594  38.9038545
  34.0958773  38.7054919  39.3502564  33.1255844  38.8061809  39.0885449
  34.7374620  39.8058216  40.0878610  35.8122795  39.6329115  40.1423453
  34.4902558  41.1562134  39.3821463  33.4282221  41.2369127  39.1504756
  34.7647247  41.9290329  40.1001413  35.3127351  41.3391445  38.0913183
  35.2408906  40.4242611  37.5031622  34.8010699  42.5173587  37.2642227
  34.8730386  43.4327370  37.8515914  35.4037602  42.6171892  36.3615052
  33.7608383  42.3439531  36.9886342  36.7829398  41.6404062  38.3921447
  37.2148401  40.8154724  38.9587538  37.3282201  41.7624759  37.4562656
  36.8542340  42.5581144  38.9759492  34.2326234  39.8163983  41.5376293
  33.0770427  39.4718361  41.7863399  35.0955414  40.1818359  42.4935415
  36.0686402  40.3064606  42.2534442  34.7127746  40.2457508  43.9161340
  34.2274346  39.3243986  44.2380879  35.9210753  40.5136142  44.8359490
  36.6670062  39.7502025  44.6148402  36.5466426  41.9042094  44.6647668
  35.8013898  42.6681987  44.8861704  37.3893643  42.0106711  45.3478383
  36.8941925  42.0230083  43.6385127  35.5440658  40.3289086  46.3094993
  35.2022098  39.3067781  46.4722438  36.4150221  40.5241363  46.9351358
  34.7463753  41.0242238  46.5708947  33.5599489  41.2348478  44.1317028
  33.6063259  42.3876108  43.7002776  32.4911233  40.7624033  44.7641497
  32.5433596  39.8182882  45.1191388  31.2325561  41.4835371  44.9019018
  31.0066594  42.0465855  43.9963377  30.1102891  40.4580181  45.1358433
  30.0789143  39.7990767  44.2681389  30.3713050  39.8791402  46.0217728
  28.7320986  41.1065259  45.3360272  28.7762494  41.7176314  46.2375269
  28.5143843  41.7417370  44.4774183  27.6047459  40.0922714  45.4898610
  27.7665692  38.8886193  45.3952682  26.3942817  40.5439644  45.7264703
  25.6280876  39.8945599  45.8328746  26.2353215  41.5385960  45.8009078
  31.2949208  42.5339455  46.0165290  31.3385721  42.1896259  47.2021127
  31.1968482  43.8141367  45.6426396  31.4266478  44.0598728  44.6903239
  30.8348015  44.8877676  46.5677974  31.5196032  44.9029916  47.4156854
  30.9207199  46.2478667  45.8391531  31.9263661  46.3299774  45.4268027
  30.1957657  46.2244714  45.0255229  30.6363244  47.4631930  46.7461257
  29.7225745  47.2679822  47.3074231  31.7861704  47.7199408  47.7189452
  32.7002278  47.9157021  47.1583427  31.5503491  48.5831598  48.3413133
  31.9294051  46.8443844  48.3521793  30.4380760  48.7423305  45.9333597
  29.5936569  48.6157236  45.2558448  30.2401432  49.5751631  46.6081290
  31.3388455  48.9496220  45.3556542  29.4269809  44.6325494  47.1377535
  28.4830917  44.3869120  46.3858330  29.2912438  44.7030101  48.4624455
  30.1398741  44.7576079  49.0073720  28.0094232  44.6358988  49.1752610
  27.2179348  44.3112558  48.4997964  28.1157858  43.6245596  50.3302156
  28.9104069  43.9777614  50.9874257  27.1639349  43.6603280  50.8601217
  28.4102130  42.1761564  49.9025911  29.3444176  42.1406097  49.3421456
  28.5320230  41.3044980  51.1499073  27.5979757  41.3391748  51.7106675
  28.7407678  40.2758418  50.8559807  29.3444239  41.6752132  51.7749476
  27.3042692  41.5909020  49.0230988  27.2001551  42.1931164  48.1205483
  27.5606783  40.5675887  48.7488988  26.3626621  41.5943054  49.5721558
  27.5628493  46.0091164  49.6943979  26.3674186  46.2823377  49.7332501
  28.5107118  46.8795156  50.0481603  29.4737902  46.5768312  50.0171506
  28.2279458  48.2469379  50.4778132  27.8038368  48.7847480  49.6298797
  27.4940340  48.2014443  51.2824268  29.4623148  48.9950791  50.9732938
  30.5892720  48.4985330  50.9070482  29.2468108  50.2148446  51.4568195
  28.2944567  50.5482128  51.4122478  30.2793688  51.1241252  51.9698331
  31.1422616  50.5777741  52.3506423  30.7640897  52.1277087  50.8953519
  31.5017881  52.7832975  51.3580652  31.3894768  51.4334506  49.6773783
  30.6521826  50.7779964  49.2138289  31.7116519  52.1844982  48.9561077
  32.2492831  50.8441971  49.9961496  29.6609110  53.0710990  50.3953796
  29.2722230  53.6519770  51.2318032  30.0720166  53.7461626  49.6447925
  28.8541332  52.4859043  49.9540661  29.7815289  51.8760627  53.2048595
  28.5826536  52.0821255  53.3889663  30.7199079  52.3442365  54.0225765
  31.6428425  51.9381437  53.9644419  30.4763729  53.3680669  55.0355573
  29.4635739  53.7557418  54.9258055  30.6310023  52.7886472  56.4564403
  31.6661784  52.5148734  56.6602972  30.2876990  53.4967057  57.2106923
  29.6519479  51.2765220  56.7018070  30.0158110  51.0788705  57.9657041
  31.4640939  54.5053439  54.7593248  32.6054753  54.4463206  55.2131184
  31.0626852  55.4982873  53.9676724  30.1350167  55.4039677  53.5795562
  31.9185695  56.6026650  53.4795114  32.8350268  56.6230899  54.0692469
  32.2934453  56.4379560  51.9906672  32.6216255  57.4027739  51.6039833
  33.4157259  55.4098955  51.8164607  33.0880929  54.4446427  52.2025219
  33.6599439  55.3135857  50.7585472  34.2988096  55.7389246  52.3641865
  31.2287264  55.9971969  51.1721307  31.5338192  55.9180376  50.2653493
  31.3630257  58.0005303  53.7899523  32.0160004  58.9981686  53.4961992
  30.2187034  58.0854124  54.4860885  29.6778489  57.2356494  54.5601056
  29.6954077  59.3091807  55.1344602  29.5281431  60.0944770  54.3972822
  28.3519193  58.9733409  55.8094332  28.4787793  58.0194761  56.3214368
  28.1560329  59.7555499  56.5428345  27.1700437  58.8777173  54.8363626
  26.9593930  59.8731021  54.4452920  27.4473938  58.2165539  54.0153620
  25.9165521  58.3266337  55.5369219  25.8017624  58.8238523  56.5000917
  25.0445866  58.5325204  54.9161270  26.0024411  56.8721532  55.7633807
  26.7692719  56.4201964  55.2860913  25.2050908  56.1347190  56.5132615
  24.2941320  56.6209701  57.3000810  24.1658892  57.6208896  57.3618445
  23.7179486  55.9970601  57.8467516  25.2745643  54.8451182  56.5043094
  25.9509330  54.3829726  55.9135074  24.6521972  54.3048525  57.0881510
  30.6229290  59.9016787  56.2048580  30.6812156  61.1146695  56.3657713
  31.2925968  59.0482049  56.9753860  31.2881626  58.0787090  56.6922651
  31.9748758  59.4056982  58.2291495  32.4617215  60.3755200  58.1265534
  30.9509757  59.4871276  59.3819044  31.5115676  59.4705998  60.3165502
  30.4304870  60.4401963  59.2878219  29.9243449  58.3396208  59.3792329
  29.0392709  58.6811069  58.8424537  30.3660748  57.4950781  58.8503458
  29.5285807  57.9062643  60.7890496  29.7740028  56.7125081  61.0842109
  28.9983303  58.7485161  61.5417277  33.1009422  58.4016817  58.5721166
  32.9750662  57.2177376  58.2398208  34.2068863  58.8241042  59.2197430
  34.6097272  60.1998768  59.4730114  34.1778850  60.5194795  60.4214136
  34.2255813  60.8281488  58.6693914  36.1349809  60.1649751  59.5057525
  36.5364851  60.9819263  60.1053224  36.5527765  60.2135676  58.5001746
  36.4186676  58.8101501  60.1486459  36.3918813  58.8599172  61.2371792
  37.3794082  58.4078282  59.8273761  35.2794033  57.9158396  59.6388944
  35.6043740  57.3670761  58.7549538  34.8538887  56.9157594  60.7376723
  33.9342995  57.2080447  61.4998992  35.5463618  55.7670415  60.8770902
  35.3750449  54.8630165  62.0076158  34.3060428  54.7128923  62.1586039
  35.8021504  55.3420520  62.8886407  36.1029738  53.5703191  61.6362316
  35.4220424  52.8606827  61.1662873  36.5549543  53.1115416  62.5156280
  37.1758369  54.0467002  60.6570366  37.4039563  53.2396751  59.9607815
  38.0982721  54.3996251  61.1181840  36.4894520  55.1974686  59.9136835
  37.2098109  55.9629344  59.6251639  35.7446394  54.7014236  58.6674012
  34.6498084  54.1421484  58.7716237  36.3133113  54.9111689  57.4791831
  37.1666660  55.4464570  57.4060279  35.6583092  54.4772773  56.2442154
  34.5866593  54.6604717  56.3223519  36.1972414  55.2337632  55.0231297
  37.2652509  55.0696004  54.8799322  35.6497006  54.8186754  54.1769611
  35.9796948  56.7374459  54.9863508  36.8774965  57.5457405  54.2640621
  37.7499577  57.0967489  53.7893856  36.6512078  58.9290665  54.1539906
  37.3585689  59.5488407  53.6029725  35.5220277  59.5126230  54.7488175
  35.3459443  60.5847674  54.6616341  34.6190216  58.7099875  55.4572900
  33.7393636  59.1605178  55.9169905  34.8439530  57.3292484  55.5763874
  34.1383812  56.7076757  56.1276731  35.7547356  52.9622932  56.0400022
  36.8092443  52.3750285  56.2825727  34.6635046  52.3540327  55.5625190
  33.8347271  52.9228647  55.4642481  34.5837980  50.9363791  55.1861520
  35.5459702  50.4624560  55.3803704  33.4968076  50.1875512  55.9808311
  32.5484319  50.6571065  55.7196788  33.5510828  49.2000677  55.5225401
  33.5951978  50.0505035  57.4941540  32.4682292  49.5589983  58.1830374
  31.5576495  49.3422474  57.6245008  32.5077901  49.3476388  59.5722037
  31.6386108  48.9475735  60.0942928  33.6832763  49.6495319  60.2890946
  33.7126841  49.4765334  61.6348289  32.8835329  49.1466914  61.9888234
  34.8182422  50.1355883  59.6078503  35.7261169  50.3697174  60.1637708
  34.7803240  50.3187386  58.2115047  35.6674815  50.6682260  57.6833852
  34.2622802  50.7672506  53.6937862  33.3702393  51.4357597  53.1670722
  34.9029920  49.7867444  53.0559515  35.8118294  49.5277505  53.4123725
  34.4057091  49.1039787  51.8514355  33.4528455  49.5319052  51.5399405
  35.4161936  49.1944481  50.6858428  36.3849672  48.8302134  51.0277655
  34.9416377  48.3463004  49.4932540  33.9730683  48.7102574  49.1504578
  35.6655715  48.4220944  48.6819120  34.8495675  47.3047770  49.8012332
  35.6465629  50.6489128  50.2196620  34.8456648  50.9123725  49.5288277
  35.5973552  51.2955427  51.0957601  37.0035903  50.8325124  49.5237701
  37.0533628  50.1864983  48.6472494  37.1166791  51.8718385  49.2153689
  37.8050536  50.5696661  50.2141818  34.1189237  47.6500948  52.2401638
  34.9782403  46.9943647  52.8311959  32.9171008  47.1517315  51.9432298
  32.2815023  47.7425994  51.4265202  32.4365774  45.8373618  52.3936859
  33.2182998  45.3066993  52.9371990  31.1925177  45.9941739  53.3018305
  30.4147047  46.5178552  52.7460741  30.6650037  44.6166861  53.7491280
  31.4421589  44.0925613  54.3053868  29.7908468  44.7511794  54.3862010
  30.3884372  44.0308208  52.8725597  31.4938635  46.8566517  54.5532316
  31.9194610  46.2003517  55.3123351  32.2310527  47.6070912  54.2677634
  30.2523452  47.5505524  55.1173787  29.5148377  46.8006817  55.4035194
  30.5300725  48.1385820  55.9921289  29.8264280  48.2074198  54.3589463
  32.1542546  44.9506276  51.1796846  31.3545275  45.3129046  50.3135519
  32.7779206  43.7733242  51.1280463  33.4724648  43.5899820  51.8380416
  32.5738609  42.7650434  50.0739897  31.7641354  43.0687648  49.4105162
  33.8407183  42.5194695  49.2260665  33.5594597  41.8685444  48.3982438
  34.4626920  43.8030218  48.6759755  34.7446503  44.4542970  49.5032843
  35.3482945  43.5562632  48.0903839  33.7392395  44.3150058  48.0414761
  34.8383650  41.8369660  49.9506051  35.6065184  41.7042818  49.3903056
  32.0920846  41.4399877  50.6493026  32.1345211  41.2031937  51.8583972
  31.6881579  40.5260194  49.7693848  31.3997086  40.8161069  48.8459426
  31.5786299  39.1058633  50.1178229  30.7975757  38.9617649  50.8643410
  31.2188666  38.2883002  48.8661476  30.9368797  37.2852861  49.1863746
  30.3678330  38.7672514  48.3819498  32.3895880  38.1987820  47.8730676
  32.7707416  39.2076426  47.7148806  33.1668138  37.5844114  48.3275651
  31.9820630  37.5936830  46.5333761  32.4713224  38.0779679  45.4908549
  31.1801620  36.6388723  46.4750386  32.8723568  38.5679597  50.7635685
  33.9735942  39.0744530  50.5173354  32.7348213  37.5175013  51.5715370
  31.8097478  37.3076954  51.9184085  33.8485880  36.6906472  52.0265184
  34.7931563  37.2241105  51.9201851  33.6390369  36.3574343  53.5049931
  33.5776696  37.2760021  54.0885740  32.7229074  35.7817933  53.6370694
  34.7547683  35.5374797  54.1063117  35.8674179  36.1809581  54.6770791
  35.9262644  37.2693039  54.6889236  36.9052019  35.4155764  55.2331980
  37.7692205  35.9147658  55.6718121  36.8333370  34.0126681  55.2259368
  37.6384712  33.4228190  55.6640428  35.7238699  33.3704723  54.6540616
  35.6686149  32.2819038  54.6459619  34.6844209  34.1309583  54.0920047
  33.8243036  33.6322274  53.6452770  33.9497248  35.4224229  51.1655356
  32.9482282  34.7503757  50.9360948  35.1559590  35.0810118  50.7041263
  35.9276876  35.6981932  50.9129840  35.4114127  33.9081208  49.8543169
  34.4722711  33.4901902  49.4917619  36.2583318  34.3309645  48.6469792
  37.1147273  34.8986737  49.0108368  36.6080441  33.4308868  48.1413495
  35.4542018  35.1931826  47.6600593  34.8868804  35.9093685  48.2544709
  36.1774613  35.7261699  47.0428703  34.3165593  34.2753906  46.5870316
  35.4969185  33.5414902  45.4253198  36.1978808  32.9088425  45.9698451
  34.9596463  32.9401150  44.6919802  36.0444864  34.3332846  44.9141130
  36.0873982  32.7895105  50.6555812  37.2031531  32.9615206  51.1488819
  35.4040204  31.6473676  50.7804347  34.6185503  31.5271890  50.1569820
  35.6675415  30.5977219  51.7846451  35.4904549  30.9806594  52.7896816
  34.7267236  29.4035422  51.5402470  35.0451164  28.9110048  50.6214797
  34.7383278  28.3958657  52.6881008  34.4195797  28.8875942  53.6071777
  34.0567389  27.5764589  52.4598289  35.7469592  28.0034384  52.8175776
  33.4059090  29.8671181  51.3869196  32.8207338  29.1214742  51.2346523
  37.1083279  30.0821922  51.8397250  37.6210466  29.8431093  52.9302977
  37.7773253  29.9243143  50.6937332  37.2790296  30.1247345  49.8383780
  39.1125651  29.3138155  50.5965181  39.3994659  28.8944391  51.5608368
  39.1097154  28.1861236  49.5516564  38.8659585  28.6952375  48.6191946
  40.0888512  27.7154799  49.4628434  38.0664916  27.1288177  49.8359544
  36.8068965  27.2242844  49.2237580  36.6302177  27.9731914  48.4517332
  35.7744359  26.3541291  49.6067161  34.8079877  26.4120028  49.1059862
  36.0003988  25.3709972  50.5908692  34.9693192  24.6048554  51.0251038
  34.1372463  24.8176914  50.5962040  37.2850216  25.2328026  51.1586929
  37.4798654  24.4433648  51.8845884  38.3173483  26.1180281  50.7855770
  39.3071474  26.0198426  51.2313991  40.2467521  30.3291705  50.3886650
  41.3490831  29.9500441  49.9994408  40.0024155  31.6161045  50.6649105
  39.0628091  31.8873709  50.9172072  41.0364786  32.6537754  50.6186347
  40.6069868  33.5724040  51.0183315  41.8617031  32.3325691  51.2541898
  41.5698598  32.9252486  49.2082135  40.8290019  32.8393637  48.2252163
  42.8429518  33.3176095  49.1096109  43.3613807  33.4672509  49.9633897
  43.4742092  33.6826804  47.8423041  42.7382021  34.1366029  47.1787175
  44.6081349  34.6921887  48.0819169  45.0275063  34.9747211  47.1163071
  44.1954306  35.5748402  48.5704879  45.7206355  34.1338657  48.9488978
  45.5827356  33.9842920  50.1516340  46.8525671  33.8148655  48.3712866
  47.6104250  33.4409223  48.9243850  46.9619962  33.9443893  47.3756212
  43.9361155  32.4665968  47.0165309  44.4589224  31.4803723  47.5382253
  43.8104590  32.5799126  45.6925947  43.4201529  33.4446179  45.3461193
  44.0943823  31.5131083  44.7323494  43.5081957  30.6211863  44.9536177
  43.7082053  32.0205857  43.3302809  42.6357684  32.2124988  43.3641588
  44.2405137  32.9604094  43.1837227  44.0216997  31.0665727  42.1640024
  45.0860485  30.8337498  42.1964989  43.2158909  29.7726861  42.2362682
  42.1513760  30.0046852  42.2033542  43.4746058  29.1352184  41.3908084
  43.4452959  29.2526385  43.1663350  43.6975055  31.7572243  40.8397436
  44.3009251  32.6597701  40.7428136  43.9193531  31.0819788  40.0133488
  42.6406938  32.0231990  40.8172621  45.5439326  31.0110762  44.7957365
  45.7584260  29.8110031  44.6679315  46.5286630  31.8928880  45.0140570
  46.2995707  32.8739719  45.0854050  47.9462801  31.5026803  45.0592069
  48.2371577  31.0370141  44.1175889  48.8247274  32.7478735  45.2845912
  48.6376037  33.4232558  44.4497602  48.4865855  33.2131341  46.2104922
  50.3345221  32.4545897  45.3790873  50.4985682  31.7960341  46.2320201
  50.8764475  31.7915210  44.1118151  50.7131674  32.4497277  43.2584673
  51.9441498  31.6048215  44.2269486  50.3587812  30.8467997  43.9456115
  51.0905054  33.7669961  45.5931612  50.7511144  34.2359135  46.5167573
  52.1593778  33.5643613  45.6606304  50.9004984  34.4372564  44.7548609
  48.2370056  30.4256867  46.1162285  48.9002735  29.4347849  45.8191373
  47.7362210  30.6107698  47.3364449  47.3051204  31.4986452  47.5507552
  47.9740664  29.6719271  48.4340012  48.9181245  29.1468934  48.2884223
  48.0437737  30.4484467  49.7545314  47.1075254  30.9188528  50.0549584
  48.3189164  29.6883716  50.4857512  49.1529100  31.5144598  49.6805112
  50.2880074  31.1744707  49.2574104  48.8441826  32.7046111  49.9224062
  46.9979077  28.4871946  48.3933057  47.4192233  27.3526876  48.6115190
  45.7615403  28.6870924  47.9182028  45.4030755  29.6282072  47.8413577
  44.8656343  27.5721130  47.5885039  44.6976052  26.9529050  48.4696661
  43.5145923  28.1148153  47.1059330  43.1114243  28.6779293  47.9476321
  43.6561567  28.7832736  46.2566845  42.5449966  27.0120182  46.7248781
  41.8441023  26.3229085  47.7328964  41.9699060  26.6177658  48.7746891
  40.9838056  25.2574378  47.4012326  40.4412502  24.7255097  48.1827617
  40.8314759  24.8756349  46.0520972  40.0131120  23.8507028  45.6991669
  39.5763056  23.4435561  46.4508525  41.5321495  25.5685385  45.0415181
  41.4053505  25.2782649  43.9985590  42.3923314  26.6311431  45.3767559
  42.9387685  27.1576333  44.5942505  45.4734153  26.6037764  46.5505774
  45.3993615  25.3909694  46.7228313  46.1334371  27.1079663  45.4990030
  46.1092946  28.1073984  45.3552946  46.8586567  26.2800796  44.5223546
  46.1789809  25.5736018  44.0458789  47.4682918  27.1856080  43.4359292
  47.9130071  28.0368959  43.9513286  48.2537043  26.6001133  42.9579928
  46.4845930  27.6902593  42.3685976  45.5621752  28.0194856  42.8469868
  47.1160418  28.8638778  41.6173331  48.0383306  28.5352841  41.1382629
  46.4221466  29.2258769  40.8586719  47.3381826  29.6678399  42.3190444
  46.1438350  26.5985888  41.3515644  45.6877515  25.7522965  41.8652535
  45.4459798  26.9939615  40.6134724  47.0547348  26.2708948  40.8505880
  47.9742040  25.4396004  45.1670864  48.2014501  24.3093957  44.7406482
  48.6584759  25.9703998  46.1857924  48.4359918  26.9172164  46.4580762
  49.7468107  25.2768066  46.8962358  50.4017742  24.7725399  46.1857168
  50.5751166  26.3003925  47.6860189  49.9002875  26.8764541  48.3191523
  51.2868107  25.7608288  48.3108889  51.3324138  27.2484904  46.7526318
  52.1763369  26.7144862  46.3159006  50.6598192  27.5748472  45.9594044
  51.8429840  28.4663448  47.5198362  51.0038781  29.0518763  47.8955397
  52.4668479  28.1488729  48.3553629  52.6440003  29.3111581  46.6303801
  52.8826344  28.8777680  45.7498540  53.0716356  30.5288816  46.8648681
  52.7166933  31.2283165  47.9070896  52.0796369  30.8328389  48.5837406
  53.0805751  32.1620977  48.0325585  53.8859267  31.0562359  45.9971507
  54.1627661  30.5272316  45.1825253  54.2371399  31.9919796  46.1425184
  49.2232143  24.1916808  47.8341279  49.7821186  23.0977524  47.8662962
  48.1718361  24.5138166  48.5836033  47.7602629  25.4191087  48.4071012
  47.6117898  23.6930879  49.6660346  48.3884517  23.0882086  50.1340265
  47.0106439  24.6299757  50.7290398  46.2764306  25.2651227  50.2334408
  46.5105241  24.0093862  51.4725779  48.0664538  25.5111541  51.4225627
  48.8230133  24.8659147  51.8690878  48.5223502  26.1163386  50.6389752
  47.4762039  26.4325102  52.5034018  46.2372181  26.4294791  52.6939828
  48.2897713  27.1205560  53.1593431  46.5469581  22.6735075  49.2196645
  46.1865467  21.7893085  49.9959922  46.0052916  22.7824276  48.0008393
  46.3249098  23.5113790  47.3790890  44.8666504  21.9645432  47.5831730
  44.1150651  21.9577444  48.3725858  44.2271210  22.5184594  46.3014250
  43.3466197  21.9442552  46.0131436  43.9556387  23.5683913  46.4111541
  45.3662298  22.4376487  44.8881714  44.5276285  22.9690003  44.0031224
  45.1655879  20.4621321  47.4246447  46.2574528  20.0122156  47.0642168
  44.1013505  19.6731204  47.5845738  43.3132814  20.0421964  48.0972426
  44.0324208  18.2997311  47.1080642  44.8566809  17.6992951  47.4929943
  42.7109079  17.7138052  47.6324415  42.8424160  17.5801179  48.7061884
  41.8964807  18.4152066  47.4512112  42.3444749  16.3775352  47.0194551
  43.1427694  15.6966471  46.3913529  41.1008737  15.9910865  47.1500474
  40.8060596  15.1077335  46.7590590  40.4418039  16.5780202  47.6412058
  44.1237224  18.2750541  45.5687952  43.1472641  18.5530311  44.8772924
  45.2844014  17.9060226  45.0149423  46.0667814  17.7213411  45.6263943
  45.5194414  17.9027828  43.5559585  45.1218743  18.8168713  43.1149575
  47.0251063  17.8273043  43.2561416  47.3983368  16.8715539  43.6240267
  47.1604063  17.8780609  42.1757631  47.8035097  18.9723743  43.9240545
  47.2717696  19.9078939  43.7503985  47.8608232  18.7811353  44.9956164
  49.2186431  19.0754036  43.3478501  49.7388559  18.1275626  43.4859629
  49.1636523  19.3074736  42.2842624  49.9841726  20.1364921  44.0232711
  49.5577260  20.5011056  44.8630923  51.1480746  20.6267430  43.6448702
  51.7718951  20.1949651  42.5827704  51.3612071  19.4615096  42.0228790
  52.6623789  20.5963282  42.3257763  51.7041273  21.5821380  44.3309363
  51.2415154  21.9452790  45.1520447  52.5957962  21.9561955  44.0392064
  44.7389839  16.8357268  42.7675483  44.6943431  16.9187337  41.5455819
  44.1115493  15.8586073  43.4319680  44.3185704  15.7207408  44.4108624
  43.1733090  14.9267506  42.7774076  43.5611325  14.6325295  41.8021507
  42.9931238  13.6615701  43.6376202  42.6004122  13.9774145  44.6041186
  42.2600949  13.0286593  43.1374277  44.2955967  12.8698174  43.8475652
  45.0297570  13.5265392  44.3142834  44.0890333  12.0284587  44.5090402
  44.8806143  12.3328807  42.5432012  44.1859929  11.9694171  41.6135828
  46.1865622  12.2567670  42.4127382  46.5855511  11.9033575  41.5548273
  46.7848161  12.5520565  43.1710243  41.8116427  15.5913482  42.5083634
  41.1957134  15.3790523  41.4643818  41.3657626  16.4423139  43.4349832
  41.8372395  16.4284215  44.3280766  40.2054594  17.3263249  43.2744868
  39.3626580  16.8003226  42.8260379  39.7982245  17.7987692  44.6800191
  39.3683951  16.9199377  45.1606449  40.7344436  18.0605043  45.1730594
  38.8159338  18.9740502  44.7904294  38.9025328  19.6353941  43.9283240
  37.8127886  18.5488575  44.8222092  39.0741991  19.7745964  46.0783621
  39.4255145  19.1461619  47.1039096  38.9607484  21.0229293  46.0088797
  40.5331404  18.4843036  42.3184944  39.8924219  18.6276750  41.2810853
  41.5697218  19.2717927  42.6226093  41.9654016  19.1571294  43.5447748
  42.0675112  20.3757016  41.7803737  41.2209771  20.8079302  41.2468405
  42.7337377  21.4800526  42.6241226  43.6406592  21.0624044  43.0613442
  43.0901538  22.7302324  41.8014690  42.1836109  23.1487384  41.3642807
  43.5560015  23.4720314  42.4501759  43.7837361  22.4569629  41.0062527
  41.7879148  21.9517654  43.7344883  41.5408025  21.1114817  44.3833032
  42.2747268  22.7315190  44.3202340  40.8747397  22.3481759  43.2905615
  42.9665771  19.8239081  40.6686439  44.1689782  20.0696588  40.6088517
  42.3766920  18.9992573  39.8101704  41.4248145  18.7392398  40.0256219
  43.0228227  18.3720341  38.6580909  44.0891140  18.2250235  38.8298751
  42.3619997  16.9962206  38.4625394  42.8337884  16.5221279  37.6018706
  42.5095731  16.3743397  39.3454812  40.8741317  17.1136532  38.1958326
  40.4487329  17.8282409  37.3027473  40.0535294  16.4530365  38.9732709
  39.0573196  16.5132144  38.8182078  40.4205435  15.8863301  39.7244335
  42.9628993  19.2697338  37.3975500  42.4851135  20.4043026  37.4369510
  43.4223032  18.7498695  36.2530976  43.7541146  17.7963742  36.2822028
  43.5602640  19.4956724  34.9988177  44.3408076  20.2391359  35.1604127
  44.0352463  18.5125623  33.9215562  43.2604499  17.7671823  33.7421143
  44.2378890  19.0548235  32.9979822  44.9454223  18.0160455  34.2579340
  42.2970389  20.2535573  34.5338148  42.4171637  21.3988775  34.0971105
  41.0902445  19.6722900  34.6447867  41.0296140  18.6908011  34.8752271
  39.8510301  20.3777252  34.2476182  40.0208576  21.0156149  33.3802345
  38.6862156  19.4119042  33.9301254  38.9989801  18.8082648  33.0781295
  38.2872770  18.4931630  35.0865892  37.9739293  19.0961190  35.9388558
  37.4636922  17.8512711  34.7738860  39.1395806  17.8766033  35.3721313
  37.4310633  20.1626975  33.4683688  37.6583048  20.7312525  32.5665880
  36.6367379  19.4472250  33.2556583  37.1048580  20.8439576  34.2542286
  39.4652741  21.4724550  35.2482525  38.9496194  22.5103164  34.8375872
  39.7918925  21.3177474  36.5364954  40.0818903  20.4082354  36.8663265
  39.6291292  22.3992943  37.5233660  38.6508973  22.8585322  37.3810208
  39.7248047  21.8846891  38.9699885  40.6861963  21.3871867  39.0977256
  39.6048668  23.0306058  39.9801938  38.6434680  23.5283293  39.8533684
  39.6765428  22.6323955  40.9923162  40.4091526  23.7473877  39.8145145
  38.5969985  20.8879713  39.2556679  38.6763597  20.0429093  38.5718008
  38.6773203  20.5322440  40.2828515  37.6337475  21.3785954  39.1158955
  40.6198357  23.5377648  37.2697314  40.2031156  24.6919620  37.2482087
  41.9003070  23.2477064  36.9971044  42.2187389  22.2952925  37.1048462
  42.8836111  24.2732489  36.5986717  43.0171496  24.9886690  37.4101153
  44.2485387  23.6273028  36.2811996  44.0577410  22.9369398  35.4595583
  44.8814271  24.4425383  35.9305668  44.9615436  22.8792315  37.4255607
  44.3624950  22.0241285  37.7386750  46.3201465  22.3922926  36.9228544
  46.9199768  23.2469313  36.6099723  46.8352070  21.8610858  37.7232497
  46.1756200  21.7210711  36.0762882  45.2018299  23.7427470  38.6607240
  44.2467027  24.0971292  39.0483382  45.7068722  23.1520490  39.4249946
  45.8237787  24.5966911  38.3922874  42.3903654  25.0813296  35.3832981
  42.4464084  26.3119091  35.3802888  41.8467781  24.3797967  34.3869279
  41.9129330  23.3741844  34.4537628  41.2620739  24.9563148  33.1796269
  41.9513549  25.6364525  32.6792233  40.9670467  23.7746132  32.2384823
  41.8362195  23.1175306  32.2681560  40.1172310  23.2732703  32.7016978
  40.6299497  24.1097654  30.7815030  39.7906098  24.8051642  30.7760238
  41.8180683  24.7392654  30.0516306  42.6577057  24.0442214  30.0562936
  41.5365970  24.9613184  29.0222778  42.1075973  25.6613898  30.5555749
  40.2943687  22.7977273  30.0775773  39.4413611  22.3292484  30.5684999
  40.0482894  22.9969825  29.0345799  41.1534598  22.1286276  30.1262301
  40.0279889  25.8260937  33.4894087  39.9688758  26.9706968  33.0542084
  39.0977213  25.3405285  34.3169622  39.1975610  24.3786807  34.6084759
  37.9171499  26.0884198  34.7738689  37.3350786  26.4508742  33.9265679
  37.0375840  25.1413956  35.6045807  36.7314670  24.3284008  34.9462259
  37.6883056  24.7497045  36.3863987  35.8075435  25.7705387  36.2377618
  34.8848767  26.4857757  35.4478662  35.0583634  26.5920841  34.3770253
  33.7421874  27.0620575  36.0369854  33.0357266  27.6229883  35.4251262
  33.5117233  26.9106108  37.4229955  32.4120851  27.4655722  37.9955606
  31.8601409  27.9376742  37.3678051  34.4264511  26.1837617  38.2100396
  34.2439785  26.0576911  39.2772370  35.5747825  25.6205608  37.6206790
  36.2862701  25.0671430  38.2335526  38.2666404  27.3486421  35.5841461
  37.6127530  28.3840386  35.4379155  39.3113912  27.3063395  36.4170267
  39.7323693  26.4127255  36.6275754  39.8163426  28.4959163  37.1154867
  38.9973849  28.9921847  37.6361834  40.8868973  28.1057559  38.1442323
  41.6499336  27.5162590  37.6359329  41.3346236  29.0198098  38.5342921
  40.2969800  27.2879823  39.3058595  39.3893019  27.7999907  39.6253415
  40.0386583  26.3079491  38.9047274  41.3959524  27.0772987  40.7323846
  42.7285523  26.1329391  39.9638811  43.1643351  26.7138805  39.1510470
  43.4960637  25.9159393  40.7068063  42.3311031  25.1979242  39.5690615
  40.3492776  29.5460342  36.1268772  40.0173414  30.7243015  36.2594465
  41.0967240  29.1323963  35.0970042  41.4331828  28.1800916  35.0937671
  41.5401475  30.0296346  34.0262941  42.0677214  30.8630022  34.4902590
  42.5168543  29.2766487  33.1186244  42.0007598  28.4445200  32.6397630
  42.8997795  29.9537829  32.3551077  43.3462554  28.8948864  33.7139818
  40.3623521  30.6390572  33.2340088  40.3381900  31.8560380  33.0471186
  39.3609195  29.8306512  32.8540912  39.4852173  28.8447031  33.0345232
  38.1262301  30.2676089  32.1653865  38.3921459  30.7010230  31.2012598
  37.1971545  29.0597736  31.9235656  36.8887816  28.6885277  32.9009002
  35.9625881  29.3873261  31.0922899  36.2701804  29.7582207  30.1145764
  35.3598743  28.4879479  30.9659802  35.3734423  30.1504239  31.6009053
  37.8630693  28.0439048  31.2178907  37.2654700  27.3053062  31.0802406
  37.3634280  31.3381436  32.9557165  36.8994441  32.3365652  32.4067992
  37.2571821  31.1826498  34.2750373  37.5957048  30.3300812  34.6976819
  36.6131229  32.1793949  35.1387173  35.6211274  32.4328830  34.7648351
  36.4700562  31.5852437  36.5376681  37.4177698  31.1257564  36.8183986
  36.2365719  32.3901458  37.2346027  35.3582723  30.5314027  36.5838705
  34.4135293  31.0513396  36.4250399  35.4705472  29.7463648  35.8360658
  35.3340998  29.8928772  37.9552519  34.6225472  30.3372546  38.8385687
  36.1542346  28.8970211  38.1933703  36.1564337  28.4547064  39.1013649
  36.7796221  28.5772799  37.4675897  37.3834610  33.5078052  35.1968046
  36.7774887  34.5808793  35.1424844  38.7170977  33.4527194  35.2704425
  39.1598744  32.5546917  35.4030860  39.5634784  34.6547084  35.2760402
  39.1628441  35.4010401  35.9620288  41.0077291  34.2971456  35.6909832
  41.3615007  33.4922236  35.0467421  41.9518680  35.5082768  35.5646313
  41.5989796  36.3134978  36.2089832  42.9585328  35.2177914  35.8652059
  41.9669296  35.8515213  34.5301964  41.0569431  33.7707586  37.1448532
  41.0452991  34.6305743  37.8146907  40.1656664  33.1666330  37.3144333
  42.3058079  32.9264208  37.4197518  43.1975441  33.5300501  37.2508193
  42.2915735  32.5816543  38.4536922  42.3179124  32.0661095  36.7505598
  39.5091846  35.3685914  33.9172410  39.3753792  36.5919965  33.8895113
  39.5563742  34.6434860  32.7916690  39.7643473  33.6566165  32.8458439
  39.4229339  35.2560250  31.4609809  40.1397803  36.0722553  31.3715458
  39.6848183  34.2500016  30.3380765  39.4994704  34.7600110  29.3927534
  40.7346237  33.9623890  30.3954149  38.8758228  33.0952768  30.4160697
  39.0871011  32.5067625  29.6876383  38.0664490  35.9301603  31.2747388
  38.0321770  37.0335516  30.7404148  36.9806091  35.3518684  31.7971365
  37.0721576  34.4301421  32.1998011  35.6507682  35.9788378  31.7862981
  35.3480007  36.2089560  30.7647910  34.6293854  35.0121802  32.3935742
  34.6880200  34.0560657  31.8734720  34.8585826  34.8656832  33.4490870
  33.3256402  35.5389353  32.2640382  32.6935143  34.9264045  32.6472128
  35.6141290  37.3034168  32.5647145  35.0908549  38.3090327  32.0803799
  36.2072164  37.3296795  33.7646059  36.5654426  36.4641591  34.1422934
  36.3241095  38.5425624  34.5767390  35.3318312  38.9475070  34.7754919
  36.9753131  38.1667444  35.9104649  37.9733486  37.7680962  35.7285177
  37.0478511  39.0520471  36.5421909  36.3690097  37.4121540  36.4115524
  37.1395018  39.6403514  33.8788568  36.7666003  40.8143886  33.9059891
  38.2412207  39.2631194  33.2300752  38.5514431  38.3052426  33.3096586
  39.0824291  40.2048338  32.4951627  39.1982117  41.1288864  33.0615728
  40.4628456  39.5923537  32.2735766  40.3218650  38.6200713  31.8014636
  41.0113682  40.2479598  31.5972605  41.2581339  39.4185817  33.5736127
  40.7370610  38.6545634  34.1505527  42.2407003  39.0467148  33.2831298
  41.4614259  40.9079837  34.5993515  42.1497720  42.0717603  33.3853822
  41.4440785  42.2013356  32.5648300  42.3292181  43.0339995  33.8649608
  43.0895143  41.6790301  32.9971185  38.4564266  40.6709598  31.1759063
  38.5883081  41.8447841  30.8393833  37.7018850  39.8177677  30.4775659
  37.7253944  38.8406616  30.7321446  36.8926287  40.2159817  29.3187308
  37.5261395  40.6879485  28.5677244  36.2192876  38.9815880  28.6894470
  36.9962508  38.2518238  28.4616937  35.5306077  38.5615023  29.4224872
  35.4499789  39.3288147  27.4039884  35.0380702  40.3357040  27.4718559
  36.2018771  39.2967943  26.6154942  34.3272846  38.3391808  27.0788252
  34.5041427  37.1207163  27.2702682  33.2410033  38.8380774  26.6905029
  35.8453145  41.2655779  29.7151922  35.6457262  42.2396051  28.9948752
  35.2018131  41.1262500  30.8782914  35.2836565  40.2538403  31.3805885
  34.2960114  42.1503555  31.4071516  33.5079711  42.3748919  30.6883505
  33.6495691  41.6206447  32.6938776  33.0967593  40.7162099  32.4399124
  34.4682171  41.3682751  33.3678397  32.7217916  42.6044215  33.3738028
  31.3380601  42.5408748  33.1326334  30.9384519  41.7907603  32.4501812
  30.4705221  43.4434653  33.7706539  29.4031600  43.4232548  33.5505820
  30.9901277  44.4129836  34.6518255  30.1332681  45.2407608  35.3007058
  29.2132962  45.0738979  35.0829719  32.3761953  44.4795702  34.8969067
  32.7808059  45.2305691  35.5754282  33.2393362  43.5691061  34.2597059
  34.3116207  43.6093026  34.4512528  34.9969047  43.5068080  31.6267971
  34.4590598  44.5469678  31.2362890  36.2046536  43.5124507  32.2062079
  36.5547536  42.6527956  32.6043566  36.9948150  44.7383910  32.3903743
  36.3760306  45.5138418  32.8419062  38.1975218  44.4667593  33.3158350
  38.7653218  43.6567245  32.8580732  38.7989014  45.3758475  33.3170103
  37.8382938  44.0862980  34.7672834  37.2503883  43.1684406  34.7697037
  39.1228411  43.8698112  35.5647161  39.7110983  44.7874439  35.5631363
  38.8730084  43.6007676  36.5910201  39.7024386  43.0665063  35.1098883
  37.0200608  45.1546391  35.4978339  36.0840607  45.3233702  34.9653555
  36.8049497  44.8179021  36.5119526  37.5878742  46.0842380  35.5369836
  37.4351928  45.3566212  31.0510581  37.2769464  46.5643000  30.8717094
  37.8898607  44.5370706  30.0975892  38.0698923  43.5832640  30.3767680
  38.2127403  44.9329827  28.7166822  39.0241919  45.6605221  28.6984622
  38.6647439  43.6697340  27.9495808  39.5269647  43.2768522  28.4883929
  37.8404699  42.9597071  28.0169177  39.0366533  43.8831600  26.4756742
  38.1236958  44.1430915  25.9399084  39.7552831  44.6976151  26.3843876
  39.6367814  42.5999689  25.8736136  38.8854233  41.6249373  25.6481908
  40.8706807  42.5520830  25.6509921  37.0177597  45.6278784  28.0407928
  37.1502732  46.7357227  27.5240693  35.8214412  45.0350244  28.1540018
  35.8209039  44.1409826  28.6238830  34.5370003  45.5585477  27.6419611
  34.5524523  45.6451323  26.5555157  33.4323399  44.5621880  28.0405924
  33.9357049  43.6287081  28.2922630  32.9569931  44.9700235  28.9326774
  32.3666825  44.2955417  26.9704831  31.7303847  45.1751636  26.8730604
  32.8585628  44.0963206  26.0183976  31.5059336  43.0808846  27.3675354
  31.1543505  43.2212497  28.3896831  30.6506247  43.0239976  26.6942524
  32.3153667  41.7762928  27.2788269  32.5726274  41.6159156  26.2318328
  33.2275536  41.9115562  27.8599621  31.5743153  40.6005723  27.7904106
  30.7292406  40.4748022  27.2517732  32.1521289  39.7763257  27.7076516
  31.3362090  40.7487960  28.7606860  34.1864712  46.9448453  28.1858632
  33.6273872  47.7679926  27.4659169  34.4858049  47.1914394  29.4676680
  34.7682481  46.4002446  30.0283248  34.2741050  48.4859339  30.1416303
  33.5059323  49.0540445  29.6169777  33.8170123  48.2679745  31.5993731
  34.5291009  47.5986433  32.0820996  33.8254919  49.2331170  32.1058590
  32.4020193  47.6576788  31.6798218  31.8342227  48.0639365  30.8427659
  32.5142903  46.5808605  31.5534909  31.6530270  47.9448572  32.9957641
  30.7375675  47.3533083  33.0059023  32.2901074  47.6417032  33.8266224
  31.3004079  49.4396866  33.1375350  32.2321663  49.9916709  33.2609859
  30.8109484  49.7555009  32.2162370  30.4050940  49.7139383  34.2934744
  30.8586281  49.4217651  35.1473136  30.2073485  50.7033529  34.3388129
  29.5414764  49.2028862  34.1790655  35.4693013  49.4464894  30.0347717
  35.3879839  50.5447742  30.5762834  36.5325558  49.0847274  29.3087426
  36.5154496  48.1365302  28.9612823  37.7767238  49.8580574  29.1655195
  38.5264418  49.2479512  28.6617413  37.5469195  51.1418766  28.3370274
  36.9512556  51.8210587  28.9469417  38.5125088  51.5995776  28.1219755
  36.8206487  50.9037552  27.0264829  37.4139858  50.6469257  25.9954132
  35.5115892  50.9992244  27.0187551  35.0021769  50.8457324  26.1602453
  35.0197890  51.2257333  27.8713553  38.5315457  50.1009731  30.4959347
  39.2906403  51.0621606  30.6201277  38.3361959  49.2344598  31.4943230
  37.5599232  48.5916911  31.4283792  39.1411029  49.2287712  32.7196031
  39.3775707  50.2507448  33.0158331  38.3588088  48.5542979  33.8609775
  38.0300882  47.5529653  33.5828135  39.0427099  48.4896334  34.7072622
  37.1249870  49.2963147  34.3539936  35.8850637  48.6333131  34.4439661
  35.8008963  47.5965865  34.1180619  34.7572678  49.3050419  34.9525740
  33.7999252  48.7871598  35.0108325  34.8621990  50.6364557  35.3837080
  33.9903397  51.1546155  35.7830471  36.0963919  51.3011877  35.2991362
  36.1797474  52.3368262  35.6286888  37.2241272  50.6322265  34.7899476
  38.1828102  51.1475092  34.7306967  40.5058855  48.5486423  32.4975485
  40.6876727  47.7736348  31.5609638  41.4604426  48.8210775  33.3932956
  41.2397646  49.5338286  34.0740205  42.7962244  48.2015123  33.4388022
  42.8285429  47.3027190  32.8229893  43.8975739  49.1883113  32.9708409
  43.9108976  50.0486498  33.6399751  45.2786338  48.5024509  32.9884219
  45.2662267  47.6422288  32.3191203  46.0399126  49.2088052  32.6573345
  45.5073303  48.1708382  34.0012546  43.6357034  49.7765134  31.5616713
  43.8672711  48.9994621  30.8332014  42.5763552  50.0260596  31.5016089
  44.4737544  51.0271723  31.2593537  45.5332931  50.7782815  31.3187751
  44.2413287  51.3873995  30.2571991  44.2423785  51.8048787  31.9871846
  43.0384333  47.7482818  34.8836662  42.8165973  48.5317406  35.8061558
  43.4703661  46.5049813  35.0885660  43.5666990  45.9188864  34.2716743
  43.7124940  45.9066430  36.4067111  43.0115219  46.2985010  37.1437217
  43.5116992  44.3862964  36.2974973  42.4918162  44.2551572  35.9359169
  44.2018560  43.8662766  35.6331456  43.5891404  43.6902848  37.6288408
  44.7501842  43.5454189  38.3809706  44.3700781  43.0238964  39.5549449
  45.1230261  42.8594117  40.3257322  43.0504421  42.7911484  39.5511689
  42.5137055  42.3765669  40.2995911  42.5319193  43.2128821  38.3466620
  41.4638864  43.1189158  38.1502506  45.0898697  46.2654129  36.9913043
  45.1778914  46.6389051  38.1559934  46.1574346  46.2160969  36.1799232
  45.9516027  45.8444024  35.2636395  47.5736525  46.4875205  36.5267184
  48.1905539  46.3553560  35.6378627  47.7702465  47.9212152  37.0534484
  47.2018506  47.9941950  37.9806481  48.8328574  48.0317670  37.2696347
  47.3269366  49.0292999  36.0950844  47.8325589  48.9163921  35.1360751
  46.2484437  48.9817725  35.9444320  47.6972040  50.3829329  36.7112051
  46.9301300  50.6668132  37.4316969  48.6566908  50.2908349  37.2201279
  47.8030417  51.4425500  35.6918758  47.3188005  51.2672278  34.8230421
  48.4681275  52.5763262  35.8252594  49.0115218  52.9283267  36.9571178
  48.9284897  52.3250221  37.7628654  49.5129019  53.8026308  37.0227689
  48.6015685  53.3873267  34.8167414  48.1937944  53.1493412  33.9238902
  49.1123093  54.2510954  34.9313983  48.2980097  45.5069747  37.4643146
  49.5283048  45.5329208  37.4630702  47.6182147  44.6512686  38.2272136
  46.6105182  44.7178367  38.2125221  48.2468210  43.7374959  39.2071670
  49.2747766  43.5235841  38.9145099  48.2581000  44.3919270  40.5994366
  48.5798849  45.4265213  40.4804055  47.2328459  44.3710723  40.9689214
  49.1773023  43.6830363  41.6024840  50.0164477  42.8312612  41.2233875
  49.0792224  43.9823590  42.8119625  47.6296239  42.3224049  39.1952893
  47.3685078  41.6958942  40.2284557  47.3306764  41.8241098  37.9950962
  47.5168134  42.3960556  37.1837206  46.6537999  40.5463570  37.8001596
  45.8419313  40.4229080  38.5169084  46.0646751  40.5260872  36.3838764
  45.4124270  41.3946442  36.2928796  46.8942983  40.6203746  35.6832087
  45.2683680  39.2529931  36.0651673  45.9273818  38.3986452  36.2197355
  44.0219522  39.1011724  36.9423082  43.3621952  39.9549794  36.7879285
  43.4975027  38.1841649  36.6736993  44.3178893  39.0561772  37.9904003
  44.8324706  39.3150365  34.6084504  45.7121537  39.3758899  33.9677055
  44.2641224  38.4186713  34.3602350  44.2084780  40.1950509  34.4525439
  47.5971116  39.3643169  38.0817978  48.5529685  39.1219529  37.3470575
  47.3124570  38.6235669  39.1515880  46.4632632  38.8567434  39.6461565
  48.1268807  37.5170364  39.6550036  48.4833764  36.8655050  38.8571835
  49.3365731  38.1213177  40.3698137  48.9957774  38.7692043  41.1774034
  49.9527155  37.3219231  40.7814411  49.9245234  38.7040717  39.6607218
  47.3165641  36.6531915  40.6338259  46.3236420  37.1253396  41.1932138
  47.7545422  35.4258227  40.9278023  48.6001956  35.0866817  40.4919664
  46.9910857  34.5029416  41.7788050  45.9819367  34.4428456  41.3712439
  47.6306451  33.1108538  41.7110100  48.6384828  33.1529599  42.1240358
  47.0312502  32.4065780  42.2879170  47.6774518  32.7821137  40.6728200
  46.8519723  35.0058028  43.2324480  45.9200994  34.6299108  43.9422424
  47.7457237  35.9004409  43.6763795  48.5858658  36.0064207  43.1258989
  47.6450208  36.6420650  44.9517029  47.4294422  35.9540482  45.7691732
  48.9779221  37.3579587  45.2487711  48.8780720  37.8750134  46.2031209
  49.7579710  36.6005896  45.3263332  49.3538429  38.3696692  44.1554887
  49.4089473  37.8265204  43.2120621  48.5531812  39.1074389  44.1031561
  50.6837259  39.0787265  44.4134014  50.6290467  39.6632463  45.3317944
  51.4911804  38.3509814  44.4940476  50.9778024  39.9874707  43.2925607
  50.6609425  40.9311061  43.4635910  51.6002309  39.7291752  42.1619192
  52.2302855  38.6086885  41.9705382  52.2487262  37.9119967  42.7015516
  52.6985198  38.4398826  41.0916975  51.5766664  40.5818098  41.1856637
  51.0765494  41.4528386  41.2919278  52.0585335  40.3710400  40.3234115
  46.4619263  37.6260850  45.0256841  46.0219922  37.9253588  46.1259350
  45.9504840  38.1002043  43.8841187  46.4754674  37.8795226  43.0499775
  44.8018267  39.0125928  43.7646599  44.5017032  39.3754289  44.7477037
  45.1990830  40.2247164  42.8906955  45.8153583  39.8576775  42.0699724
  44.2889686  40.6707741  42.4896664  45.9769749  41.2975342  43.6413933
  45.6978494  41.6258557  44.7840919  46.9719871  41.8766190  43.0151462
  47.5102045  42.5925622  43.4818871  47.1959483  41.6042526  42.0687009
  43.5109865  38.3077007  43.2779847  42.5217269  38.9655082  42.9687264
  43.4857743  36.9727121  43.2279164  44.3637710  36.4806184  43.3119685
  42.2694249  36.1887379  42.9765286  41.4463276  36.8510161  42.7082048
  42.5076318  35.2090426  41.8196947  43.3771541  34.5749889  41.9929173
  41.6356568  34.5841840  41.6265332  42.8371559  36.1042457  40.2758633
  42.9909122  35.0222605  39.5178625  41.8160186  35.4605709  44.2513299
  42.6501263  35.0808848  45.0687912  40.5105184  35.2266475  44.4023563
  39.9143826  35.5929824  43.6739881  39.8816926  34.5244882  45.5300945
  40.6361882  34.2400046  46.2635144  38.8584889  35.4470744  46.2107691
  38.1725106  35.7737219  45.4292102  38.3187194  34.8382213  46.9360599
  39.4525208  36.6737069  46.9146639  40.1115691  37.1966183  46.2216129
  38.3391494  37.6186452  47.3702960  37.6799137  37.0965454  48.0637792
  38.7771974  38.4838894  47.8678572  37.7658865  37.9497640  46.5043685
  40.2722514  36.2718269  48.1444840  41.0903408  35.6194457  47.8391515
  40.6783309  37.1652090  48.6188982  39.6322777  35.7444184  48.8518545
  39.1798810  33.2323096  45.0933498  38.7245163  33.1407201  43.9534988
  39.0380136  32.2775795  46.0204750  39.4398291  32.4697426  46.9269610
  38.4299762  30.9522255  45.7912557  37.9605472  30.9189429  44.8080834
  39.4890154  29.8314356  45.8705464  39.8590717  29.7765671  46.8943369
  38.8986421  28.4726845  45.4665369  38.5287704  28.5266404  44.4426304
  39.6706631  27.7061336  45.5334980  38.0768257  28.2194172  46.1362945
  40.6894891  30.1124547  44.9595512  41.1613226  31.0486690  45.2578430
  41.4101451  29.2992719  45.0460866  40.3517917  30.1895253  43.9260516
  37.2709221  30.6728472  46.7608574  37.3961691  30.8627632  47.9697966
  36.1388021  30.2059448  46.2311731  36.1126583  30.1727143  45.2220588
  34.9568973  29.7476934  46.9740585  35.1726175  29.8185656  48.0401453
  34.1214808  30.4033689  46.7285625  34.5712767  28.2991172  46.6372192
  35.2773989  27.6157070  45.8930526  33.4478666  27.8299886  47.1843929
  32.9889597  28.4275055  47.8570573  32.8645826  26.5040816  46.9155130
  33.4702222  25.7252961  47.3789708  31.4386426  26.4348870  47.5025540
  31.0144089  27.4335786  47.3989196  30.8817760  25.7374181  46.8768250
  31.3480584  25.9900823  48.9706294  30.2976102  26.1441958  49.2174257
  31.5884753  24.9301540  49.0533986  32.2237563  26.7898763  49.9425804
  32.3365302  28.0287894  49.7908258  32.8521277  26.1354193  50.8014253
  32.8088531  26.1483902  45.4155414  32.5670636  27.0047557  44.5659386
  32.9962413  24.8592423  45.0967992  33.2819167  24.2490038  45.8491939
  32.9972567  24.3232449  43.7235113  33.3987661  23.3098898  43.7226161
  31.5648279  24.2855178  43.1592831  31.1728037  25.2978345  43.0611451
  31.6075682  23.8161337  42.1764545  30.6281108  23.4881892  44.0343341
  30.7806593  22.2951505  44.2151670  29.6459272  24.1182565  44.6322861
  29.0065085  23.6057463  45.2226901  29.5333550  25.1131674  44.4996945
  34.0031948  25.0053166  42.7775638  33.7330402  25.1625778  41.5885947
  35.1534021  25.4350502  43.3107599  35.2182629  25.4344009  44.3186745
  36.2271655  26.0817729  42.5440194  36.9817049  26.4755798  43.2249640
  36.8988418  25.0689892  41.5975743  36.4053272  24.8269045  40.6563318
  37.8586925  25.5430598  41.3925285  37.2018080  23.7573314  42.2754233
  36.4467132  22.5874002  42.1719930  36.9705314  21.7353098  43.0676567
  36.5403202  20.7370958  43.1488116  37.9841962  22.3133882  43.7296976
  38.5417501  21.9001579  44.4635057  38.1464281  23.5876146  43.2382286
  38.9287313  24.2313533  43.6403523  35.7917624  27.3845064  41.8581189
  36.3578987  27.7723618  40.8336332  34.8060790  28.0772852  42.4418927
  34.2656692  27.6145565  43.1587879  34.4292311  29.4347375  42.0588917
  34.1800637  29.4763116  40.9985679  33.1938542  29.8644708  42.8719540
  32.3723888  29.2354968  42.5289010  33.4056520  29.6457621  43.9185715
  32.7996385  31.3494668  42.7266587  33.6426334  31.9494729  43.0693731
  32.4459246  31.7408879  41.2916043  31.6026570  31.1415857  40.9483326
  32.1780561  32.7969271  41.2580120  33.3045381  31.5635928  40.6439549
  31.5893016  31.6356882  43.6143088  31.8418776  31.4239915  44.6532935
  31.3057501  32.6835710  43.5161180  30.7556499  31.0039692  43.3076249
  35.6187832  30.3766666  42.2771564  36.0389439  30.5899757  43.4152742
  36.1403465  30.9589674  41.1989934  35.8029374  30.6517284  40.2979614
  37.2501422  31.9189568  41.2361152  37.6030791  31.9793950  42.2656209
  38.4251800  31.4908860  40.3373881  38.0341144  31.3197264  39.3344568
  39.5396722  32.5443210  40.2786358  39.9315775  32.7156895  41.2812045
  40.3417241  32.1897507  39.6312618  39.1383994  33.4767840  39.8816540
  39.0594066  30.2132582  40.8914367  38.3144624  29.4178934  40.9149941
  39.8904517  29.9132096  40.2531307  39.4257189  30.3972957  41.9014101
  36.7622003  33.3188790  40.9017912  36.0242047  33.5194775  39.9337308
  37.2134633  34.3039096  41.6849236  37.7163817  34.0459348  42.5219550
  36.9331511  35.7253167  41.4520015  36.5107463  35.8551866  40.4556043
  35.9320691  36.2652768  42.4835334  36.3883183  36.1859637  43.4702681
  35.7436942  37.3140855  42.2541531  34.6044036  35.4918862  42.4698548
  34.2483440  35.4130754  41.4426687  34.7694217  34.4932296  42.8742756
  33.5611573  36.2166152  43.3152346  33.9254317  36.2760686  44.3408409
  33.4301881  37.2230957  42.9178135  32.2203036  35.4815450  43.2926896
  32.0003567  35.1669555  42.2725144  32.2804685  34.6049276  43.9376867
  31.1465387  36.3743385  43.7746510  31.0903360  37.1864898  43.1768624
  30.2652593  35.8812701  43.7564790  31.3499383  36.6656172  44.7201055
  38.2121975  36.5531924  41.4342226  39.0556400  36.4080068  42.3144003
  38.3429899  37.4355668  40.4492786  37.7215022  37.3440600  39.6584063
  39.3857818  38.4667991  40.3989592  40.3368611  38.0685454  40.7524297
  39.5724441  38.9816078  38.9548508  38.5883564  39.2563743  38.5751483
  40.5141650  40.1888426  38.8549558  41.4986509  39.9146920  39.2340731
  40.5997660  40.4983180  37.8133234  40.1140271  41.0123574  39.4464072
  40.1371528  37.8768835  38.0532371  39.4490887  37.0316214  38.0390288
  40.2606735  38.2612216  37.0407518  41.1036074  37.5515571  38.4382423
  39.0405989  39.5939942  41.3813226  37.8851417  40.0076378  41.4962912
  40.0522904  40.0938794  42.0807659  40.9312127  39.6092479  41.9679504
  39.9974616  41.2196935  43.0055915  39.1314133  41.8573842  42.8283625
  39.9046994  40.6496793  44.4316690  40.7698334  40.0161286  44.6272623
  39.8850246  41.4689135  45.1503960  38.9934307  40.0595959  44.5290863
  41.2437613  42.1071781  42.8137971  42.0877815  41.8284724  41.9657393
  41.3719419  43.1653971  43.6074722  40.5325776  43.5416550  44.0246017
  42.6404642  43.8523419  43.8593927  43.4651975  43.1582946  43.6974899
  42.8221982  45.0605904  42.9205586  42.8596748  44.6530829  41.9102950
  41.9596161  45.7203979  43.0138654  44.1086609  45.8563553  43.2001614
  44.9817671  45.3492232  43.9468934  44.2005589  46.9939345  42.6950661
  42.6551151  44.2635324  45.3353977  41.6934536  44.8571650  45.8264462
  43.7133846  43.9065806  46.0621693  44.3912015  43.2786689  45.6542596
  43.8605553  44.2647166  47.4747023  42.9193176  44.6496024  47.8671735
  44.2549739  43.0207712  48.2797382  45.2843571  42.7565845  48.0375093
  44.1714054  43.2109978  49.3497523  43.4127823  41.7939995  47.9902667
  44.0094878  40.6199388  47.4884801  45.0851235  40.5863381  47.3153363
  43.2185069  39.4937816  47.2116657  43.6775910  38.5772646  46.8410730
  41.8330720  39.5513756  47.4137028  41.2232481  38.6779729  47.1826561
  41.2292827  40.7179593  47.9081468  40.1513381  40.7570909  48.0650049
  42.0219501  41.8381026  48.2008982  41.5607521  42.7448577  48.5922950
  44.8078960  45.4497750  47.7128349  44.9465927  45.8882130  48.8545657
  45.4593475  45.9890984  46.6746094  45.2308627  45.6651660  45.7456520
  46.4880277  47.0263710  46.8164289  46.7223126  47.4132438  45.8246935
  46.0817113  47.8287537  47.4322115  47.7757516  46.5026516  47.4649621
  48.4330325  47.2154430  48.2241467  48.1288476  45.2400699  47.1935500
  47.5827280  44.7524459  46.4977947  49.2276663  44.5149349  47.8524550
  49.0694099  44.4801163  48.9303426  49.2735647  43.0743164  47.3156480
  49.4301253  43.1788050  46.2420232  50.1512338  42.6115784  47.7669466
  48.0447385  42.1936599  47.5691600  47.1583317  42.6728738  47.1535426
  48.2524129  40.8365646  46.8969116  49.1384381  40.3565085  47.3123683
  47.3812980  40.2057432  47.0738969  48.3857965  40.9783891  45.8244401
  47.7945040  41.9750860  49.0643904  47.6297799  42.9368613  49.5501410
  46.9145823  41.3457817  49.1978636  48.6608232  41.4868511  49.5107275
  50.6191197  45.1428612  47.6552799  51.5418272  44.8251104  48.4108131
  50.7856418  46.0251949  46.6664141  49.9597606  46.2855760  46.1465860
  52.0820890  46.5574374  46.2263328  52.7471384  45.7395948  45.9489486
  51.8891557  47.4649973  45.0094397  52.8671296  47.7893983  44.6538693
  51.3871117  46.8992149  44.2246199  51.1094394  48.5989760  45.3461765
  51.0004670  49.1541364  44.5705982  52.8877797  47.2951799  47.2990489
  54.1065963  47.3600362  47.1744667  52.2621786  47.7892981  48.3794652
  51.2728674  47.9760994  48.2990407  52.9788688  48.3006634  49.5708164
  54.0362509  48.0490154  49.4888675  52.8459308  49.8246843  49.7013598
  53.6001007  50.1423760  50.4213591  53.0802330  50.2425668  48.7222905
  51.4656764  50.3228487  50.1530544  50.7511292  50.2694641  49.3316694
  51.0996623  49.7301933  50.9914430  51.6308443  51.7870163  50.5940884
  52.2951068  51.8187258  51.4577138  52.0750950  52.3507780  49.7737754
  50.3508769  52.4160960  50.9600818  50.1811144  52.4821166  51.9535209
  49.4370063  52.8818590  50.1340979  49.5412977  52.7758255  48.8394681
  50.3482675  52.3214325  48.4364460  48.8146711  53.1485361  48.2451616
  48.3863082  53.4751648  50.6018794  48.2709703  53.5789010  51.5998955
  47.6865990  53.8316655  49.9667314  52.7114829  47.5502733  50.8821763
  53.0720366  48.0474030  51.9429515  52.0795981  46.3797326  50.8043181
  51.7762324  46.0889546  49.8858864  51.7699090  45.5101800  51.9482512
  51.9832780  46.0194076  52.8880704  50.2695912  45.1575421  51.9085659
  50.1100434  44.6169986  50.9755833  50.0834716  44.4908170  52.7505500
  49.3037322  46.3551992  51.9792482  49.5822891  47.0948997  51.2286817
  47.8797112  45.8696546  51.7114805  47.6002567  45.1302166  52.4619706
  47.1921435  46.7140209  51.7604381  47.8295721  45.4179061  50.7207687
  49.3419301  47.0333388  53.3508227  50.3508358  47.3945542  53.5501517
  48.6472503  47.8732312  53.3609262  49.0549467  46.3158666  54.1195706
  52.5996498  44.2168951  51.9526435  52.9230180  43.6925622  53.0157253
  52.9150060  43.6796653  50.7714527  52.5764568  44.1353818  49.9361047
  53.5894088  42.3875881  50.6324832  53.1518268  41.6519471  51.3073562
  53.4198050  41.8919562  49.1903932  52.3657395  41.9846410  48.9287544
  54.0123157  42.5397371  48.5443196  53.8669274  40.4358699  49.0029813
  54.9256129  40.4597502  48.7446879  53.7391671  39.9384369  49.9644072
  52.9607522  39.5107273  47.7261158  51.3952728  39.2163154  48.5975823
  50.9392370  40.1711787  48.8590522  50.7191266  38.6560648  47.9517912
  51.5863443  38.6447111  49.5058012  55.0544797  42.4298468  51.1115765
  55.7498918  43.4247276  50.9311347  55.5004810  41.3412045  51.7490141
  55.0443050  40.4649542  51.5388041  56.5893071  41.3425648  52.7509507
  56.7394895  42.3476373  53.1451254  56.1929923  40.4155345  53.9089660
  57.0577414  40.3156055  54.5649564  55.0057018  40.9384390  54.7098694
  54.1403846  41.0381958  54.0546028  54.7733379  40.2401741  55.5139417
  55.2533554  41.9113166  55.1344603  55.8293798  39.1488471  53.3999955
  55.5820956  38.5712975  54.1258656  57.9794299  40.8974767  52.2825373
  58.9493517  41.1236901  53.0046080  58.0954384  40.2164419  51.1393944
  57.2479600  39.9533616  50.6570372  59.3873325  39.8286638  50.5445030
  60.1128253  39.6470908  51.3374662  59.2584566  38.9204577  49.9557314
  59.9114318  40.9401820  49.6359056  59.8829860  42.1034224  50.0199520
  60.2207096  40.6168777  48.3762043  61.0140109  40.0486529  48.1156417
  59.5944961  41.4467674  47.3475281  58.5581495  41.6176354  47.6388855
  60.2776192  42.8112476  47.1354274  61.2602327  42.8898450  47.6006073
  60.3812427  42.8894588  46.0531866  59.3704879  43.9545464  47.6504241
  59.9060277  45.0129690  48.0547056  58.1166213  43.8523189  47.5488893
  59.1955231  40.7253018  46.0619722  59.9382891  40.5646726  45.0949375
  57.9057073  40.3918225  46.0606385  57.4791364  40.1877444  46.9531006
  57.0767620  40.3079204  44.8620731  57.4484956  39.5456503  44.1773413
  55.6447565  39.9353682  45.2817600  55.2947249  40.7322260  45.9379580
  54.6603991  39.7555608  44.1314054  55.0095447  38.9584974  43.4749856
  53.6796922  39.4945719  44.5291464  54.5872333  40.6848844  43.5665116
  55.6462749  38.7251698  46.0027507  54.7478142  38.5039908  46.2585796
  57.0470994  41.6511984  44.1204255  56.9517223  41.6352794  42.8972440
  57.1538610  42.7955831  44.8241411  57.3381386  42.6957779  45.8121593
  56.9787066  44.1506212  44.2811560  56.7995367  44.1031216  43.2070326
  55.7749146  44.8311760  44.9499721  55.9468368  44.9113237  46.0233399
  55.7827523  45.8266080  44.5059522  54.4381828  44.1820747  44.7029849
  53.9730187  43.1927096  45.5883170  54.6059428  42.8498687  46.4068319
  52.6902799  42.6464614  45.4160291  52.3270752  41.8683545  46.0873962
  51.8735867  43.1077573  44.3657405  50.6341165  42.5849367  44.2248210
  50.4293883  41.9212427  44.8875398  52.3389955  44.1003459  43.4785242
  51.7042035  44.4510135  42.6647848  53.6276162  44.6379449  43.6468631
  53.9928401  45.4028384  42.9615534  58.2236491  45.0349068  44.4600109
  58.3377671  45.7966982  45.4198421  59.1423125  45.0067821  43.4999548
  59.0605275  44.3198330  42.7640801  60.3143113  45.8993378  43.4950712
  60.8193882  45.7979740  44.4556553  61.2849864  45.4916484  42.3875992
  60.7083974  45.4811078  41.4626482  62.5053356  46.3921467  42.2157600
  63.0827093  46.4028241  43.1402194  63.1263930  46.0123995  41.4044778
  62.1796340  47.4052074  41.9796942  61.7973961  44.2309122  42.7042150
  62.4113593  43.9540229  42.0201230  59.9246091  47.3689858  43.3278199
  59.0322994  47.7062911  42.5486520  60.6168949  48.2651571  44.0342838
  61.2635391  47.9227236  44.7304805  60.4199829  49.7100775  43.9219457
  59.3561283  49.9043156  44.0582693  61.1927621  50.3999334  45.0522961
  62.2605230  50.2221126  44.9243648  60.9976470  51.4719793  45.0249480
  60.8702825  49.9968377  46.0123066  60.8104563  50.2850477  42.5435384
  61.8315110  49.9205681  41.9639497  60.0191755  51.2449457  42.0587047
  59.1579137  51.3985290  42.5634220  60.2727117  52.0454514  40.8567596
  61.3436684  52.1925208  40.7170402  59.7141910  51.3089506  39.6298505
  60.1269362  50.3161713  39.4506022  58.6474418  51.2262249  39.8379434
  59.8434293  52.0709582  38.3331640  59.2072614  53.2771032  38.0482612
  59.4524731  53.5381157  36.7592605  59.0330168  54.4429929  36.3195418
  60.2170819  52.5712162  36.2250134  60.5523289  52.5211963  35.2735896
  60.4768529  51.6371076  37.2050757  61.0895148  50.7646986  36.9778107
  59.6220381  53.4239240  41.0330355  58.4105114  53.5197572  41.1994118
  60.4316802  54.4894272  41.0567138  61.4154965  54.3043454  41.1906893
  59.9726705  55.8871711  41.0981878  60.8652094  56.4380674  41.3948132
  59.5824631  56.3143610  39.6755357  58.6849180  55.7778642  39.3678283
  59.3880567  57.3867424  39.6580811  60.3970795  56.0820951  38.9895679
  58.8955060  56.2182480  42.1685045  58.0204036  57.0502293  41.9438251
  58.9443265  55.5651849  43.3355487  59.7063192  54.9156460  43.4680842
  57.9692939  55.7303758  44.4277727  58.4931601  55.5228340  45.3608268
  57.6469160  56.7715508  44.4165227  56.7321063  54.8226442  44.3361311
  56.0825319  54.5798453  45.3511462  56.4480439  54.2525527  43.1641818
  56.7914952  54.6914831  42.3218750  55.6098158  53.0663693  43.0332974
  54.7716906  53.1156174  43.7284377  55.0567428  53.0179183  41.5994904
  55.8840143  52.9592082  40.8921892  54.4186733  52.1416352  41.4850547
  54.4748977  53.9185145  41.4033219  56.4050136  51.7932412  43.3887887
  57.6333546  51.8081074  43.5243742  55.7071438  50.6572580  43.4962917
  54.7137804  50.7224336  43.6668220  56.3244340  49.3249199  43.4779340
  57.3415060  49.4130655  43.0959732  56.3780191  48.6855128  44.8748886
  55.3415240  48.5038228  45.1590821  56.8914345  47.7325943  44.7466277
  57.0790395  49.5025106  45.9814978  57.7673746  50.1952076  45.4972804
  56.3128337  50.0655327  46.5144488  57.8545491  48.6214731  46.9781492
  58.6475475  48.1105001  46.4321097  58.2952279  49.2723370  47.7333166
  56.9536499  47.5842789  47.6603205  56.3938057  48.0940818  48.4443972
  56.2612440  47.2006774  46.9109720  57.7142064  46.4611962  48.2489027
  58.3555594  46.8163898  48.9435993  57.0738525  45.8116728  48.6826841
  58.2327064  45.9884042  47.5224561  55.5901491  48.4310116  42.4801009
  54.3586934  48.4041080  42.4769027  56.3307204  47.7038364  41.6443053
  57.3345673  47.7582699  41.7414014  55.7814762  46.9030484  40.5474543
  54.6927668  46.9104079  40.5999611  56.2109527  47.4678423  39.1853626
  57.2971164  47.5238730  39.1131958  55.8305664  46.7944055  38.4173201
  55.6817753  48.8503142  38.8513899  56.5482480  49.8248279  38.3218257
  57.6005633  49.5858330  38.1681580  56.0621227  51.1013435  37.9915667
  56.7393272  51.8530318  37.5860306  54.7056409  51.4089359  38.1834783
  54.3309381  52.4018891  37.9349999  53.8308873  50.4357724  38.6962317
  52.7766046  50.6721228  38.8401988  54.3155469  49.1578434  39.0233516
  53.6352110  48.3998477  39.4115339  56.1637391  45.4225734  40.6501035
  57.3096425  45.1000136  40.9805678  55.2375425  44.5053258  40.3187869
  53.8505912  44.7475494  39.9267923  53.8599139  45.3677928  39.0305159
  53.3634790  45.2890696  40.7377032  53.2249847  43.3763982  39.6843466
  53.2480805  43.1186851  38.6255031  52.1957277  43.3488952  40.0420824
  54.1136764  42.4416337  40.5061231  54.1180907  41.4394450  40.0775240
  53.8444186  42.3840205  41.5607702  55.4967628  43.0782146  40.3545122
  56.0903777  42.8509502  41.2399898  56.2572833  42.6295895  39.1014196
  55.6696812  42.0299246  38.2093883  57.5643632  42.9197274  39.0218245
  57.9854031  43.3145582  39.8506390  58.3894732  42.8214010  37.7920565
  58.1137818  43.5674082  37.0466930  59.8923554  42.9785129  38.1498565
  60.0772740  42.4039241  39.0574650  60.8375719  42.4904607  37.0305657
  60.6535511  43.0649394  36.1227049  61.8727855  42.6275082  37.3430580
  60.6545412  41.4339367  36.8347189  60.1791871  44.4573141  38.5032846
  59.9592218  45.0415808  37.6097811  59.4830579  44.7308997  39.2961620
  61.6146695  44.7453464  38.9616685  62.3113893  44.4724276  38.1690799
  61.7187266  45.8067965  39.1866018  61.8352262  44.1617444  39.8554600
  58.1395990  41.5471326  36.9664394  58.0484514  41.6222500  35.7461663
  57.9879455  40.3882509  37.6173376  58.1475942  40.3977495  38.6145945
  57.7719377  39.0878102  36.9562108  58.3562371  39.0185343  36.0386628
  58.2248468  37.9749132  37.9113038  57.7710958  38.1335313  38.8895930
  57.9070186  37.0100907  37.5160790  59.7583439  37.9931144  38.0481705
  60.1896211  37.8387702  37.0590908  60.0543247  38.9724346  38.4242415
  60.2644865  36.9074214  38.9999269  59.9508516  37.1506984  40.0150862
  59.8343606  35.9496727  38.7069957  61.7963331  36.8182216  38.9454082
  62.0928960  36.7472625  37.8989304  62.2028873  37.7330877  39.3764917
  62.3201128  35.6483398  39.6869596  61.9438485  34.8004775  39.2873918
  63.3279283  35.6325540  39.6224703  62.0457839  35.7141165  40.6567617
  56.3564680  38.8558350  36.3909294  56.1636254  37.8899990  35.6619860
  55.3968989  39.7349981  36.6823559  55.6099500  40.3626756  37.4444120
  54.0718258  39.8345385  36.0447425  53.8999528  38.9693816  35.4043814
  52.9715463  39.8775057  37.1185934  53.2256896  40.6652665  37.8277784
  52.0113968  40.1030239  36.6545304  52.7769209  38.6243586  37.9205593
  51.7478450  37.7598129  37.7753781  51.0046995  37.9934160  37.0129713
  51.8796131  36.7189191  38.6766102  51.1941949  35.9830070  38.7700702
  53.0047759  36.8641608  39.4512149  53.5419414  36.1169749  40.5148128
  53.0210932  35.1968363  40.7796920  54.6938343  36.5817295  41.1665234
  55.1374689  36.0222324  41.9900835  55.2934506  37.7857588  40.7598382
  56.1867943  38.1741593  41.2489003  54.7455471  38.5295232  39.6948306
  55.2337263  39.4805882  39.4820932  53.5972956  38.0847818  39.0072423
  53.9456093  41.0653292  35.1283666  53.0524546  41.1060564  34.2859399
  54.8153148  42.0687822  35.2771336  55.5189272  41.9684910  35.9947481
  54.7785821  43.3213125  34.5066962  53.7491353  43.6791239  34.5242859
  55.6789794  44.3820531  35.1629453  56.7148540  44.0743808  35.0201099
  55.4772488  45.7735022  34.5758361  54.4416468  46.0820690  34.7187161
  56.1387612  46.4796064  35.0777497  55.7068162  45.7556688  33.5104341
  55.3821178  44.5427885  36.5282743  55.9605871  45.2098310  36.9051401
  55.2032549  43.1184943  33.0445718  56.2262126  42.4961347  32.7649719
  54.4446856  43.6836695  32.1009964  53.5816171  44.1248136  32.3849049
  54.7608704  43.6318975  30.6708941  54.9880496  42.6007742  30.4002031
  53.5175232  44.0777650  29.8981200  53.2827545  45.1115202  30.1517613
  53.7075616  44.0010387  28.8275600  52.6753975  43.4387661  30.1638341
  55.9967876  44.4851288  30.2859341  56.2841766  45.4751555  30.9687603
  56.7042384  44.1847451  29.1765951  56.5159231  43.0316074  28.3087900
  55.6752034  43.2386699  27.6466603  56.2814744  42.1703699  28.9344119
  57.8299927  42.8603052  27.5516012  57.6629276  42.4196213  26.5687553
  58.5288415  42.2403359  28.1131614  58.3416279  44.2934188  27.4399562
  57.9107091  44.8344756  26.5975397  59.4290099  44.3167207  27.3681442
  57.8908737  44.9348116  28.7562893  58.6594270  44.7708746  29.5116361
  57.6520734  46.4417372  28.5890813  58.4444426  47.2412220  29.0757271
  56.5415010  46.8553935  27.9726954  55.9570878  46.1547109  27.5395622
  56.1897531  48.2693659  27.7841204  57.0596431  48.8247402  27.4334781
  55.0631208  48.4052718  26.7377127  55.0530144  49.4572100  26.4523656
  55.3785985  47.8015391  25.8867834  53.6458576  47.9773678  27.1744830
  53.5220113  48.3891546  28.1760790  52.9349425  48.4506084  26.4971779
  53.3898758  46.4627518  27.2085540  54.3037468  45.6574624  26.9192192
  52.2465109  46.0513078  27.4988770  55.8315591  48.9913083  29.0958301
  56.0527037  50.1994140  29.2233598  55.3312155  48.2561106  30.0940352
  55.0340346  47.3139903  29.8838155  55.1361579  48.7578478  31.4551635
  54.6917756  49.7525657  31.4211073  54.2057836  47.8340299  32.2398973
  54.5845732  46.8155425  32.1544501  54.2227192  48.1408807  33.2856773
  52.8807194  47.8849616  31.7563689  52.3286484  47.2933483  32.2729066
  56.4662454  48.9127725  32.1959873  56.6324185  49.8976106  32.9046166
  57.4299972  48.0005419  32.0082865  57.2041028  47.1741307  31.4733888
  58.7776404  48.1071690  32.5928664  58.7086584  48.3715305  33.6480695
  59.5117940  46.7533063  32.4700643  59.4418726  46.4722925  31.4192354
  60.5551712  46.9337490  32.7287234  58.9564673  45.6135618  33.3438318
  57.8810855  45.5367839  33.1833323  59.6210653  44.2861335  32.9822950
  60.6964822  44.3619940  33.1429886  59.2153950  43.4931255  33.6105232
  59.4261175  44.0549476  31.9350850  59.1822039  45.8653808  34.8373160
  58.6832399  46.7892067  35.1300274  58.7735272  45.0344036  35.4122608
  60.2507562  45.9520363  35.0342574  59.6203827  49.2231069  31.9476301
  60.2619425  49.9928903  32.6563195  59.6268420  49.3070186  30.6144298
  59.0581564  48.6492204  30.1006229  60.4540303  50.2495546  29.8573417
  61.4249097  50.3281906  30.3465336  60.6587700  49.6701261  28.4521302
  59.6963001  49.5938307  27.9462343  61.3178434  50.3242562  27.8813095
  61.1078797  48.6799094  28.5287510  59.8652831  51.6684099  29.7753147
  60.6133510  52.6443581  29.7540205  58.5336219  51.7978152  29.7112531
  57.9648582  50.9697130  29.8154349  57.8620867  53.0720317  29.4134884
  58.5638982  53.8989802  29.5217292  57.3338221  53.0617754  27.9696958
  56.4344850  52.4466844  28.0006000  57.0618027  54.0905901  27.7338021
  58.2724330  52.5307066  26.9043952  57.9185955  51.3832549  26.1670625
  56.9556323  50.9030249  26.3407878  58.8052600  50.8566720  25.2077781
  58.5339320  49.9654327  24.6419376  60.0447793  51.4909752  24.9741837
  60.9151578  50.9838796  24.0646991  60.5887343  50.1896892  23.6353868
  60.3857444  52.6533747  25.6945498  61.3351351  53.1523290  25.5001216
  59.5039552  53.1704587  26.6631617  59.7748338  54.0644361  27.2248815
  56.7215658  53.4383158  30.3723403  56.1002863  54.4841551  30.1829277
  56.4183299  52.6037514  31.3758163  56.9400740  51.7394541  31.4053553
  55.2692495  52.7567403  32.2833853  55.1802346  51.8749177  32.9178649
  55.4527754  53.9971220  33.1851838  55.1566079  54.8859979  32.6281525
  54.8004007  53.8768502  34.0500780  56.8794041  54.1839054  33.6751314
  57.3695922  53.4771152  34.5331805  57.5998916  55.1377114  33.1309891
  58.5511454  55.2848301  33.4368847  57.1993507  55.7196446  32.4091709
  53.8882101  52.6861348  31.5777636  52.8809299  53.1457388  32.1201958
  53.8186475  52.1175302  30.3629702  54.6849180  51.7636304  29.9829312
  52.6222216  52.1229099  29.4939315  51.9863369  52.9744413  29.7360972
  53.0494084  52.2315718  28.0178123  53.8348529  51.5030423  27.8167630
  52.1905690  52.0246726  27.3793081  53.5761078  53.6465946  27.7253807
  52.7402261  54.3393553  27.8227735  54.3315454  53.8818458  28.4750959
  54.1873113  53.7776076  26.3262567  54.9376905  53.0017385  26.1744110
  53.4082422  53.6818575  25.5699612  54.8477707  55.1576448  26.2078862
  54.0617638  55.9057368  26.1046776  55.4112660  55.3471064  27.1214925
  55.7602124  55.2344597  25.0391079  55.2381773  55.0593549  24.1923981
  56.1742463  56.1546466  24.9951538  56.4888641  54.5416272  25.1347577
  51.6716284  50.9505262  29.7711840  51.5040747  50.0488730  28.9562986
  51.0298227  50.9837416  30.9367175  51.3181469  51.6689950  31.6203813
  49.9751465  50.0317386  31.3073297  50.3291549  49.0100840  31.1694921
  49.5892927  50.2220229  32.7779975  49.3542007  51.2712229  32.9569121
  48.7251302  49.6081617  33.0319611  50.6863741  49.8511056  33.7544742
  51.6592601  50.7974209  34.1299062  51.6024651  51.8152573  33.7440521
  52.7017179  50.4325776  34.9998166  53.4675519  51.1598010  35.2695298
  52.7557783  49.1289974  35.5216989  53.5611800  48.8468874  36.1998153
  51.7715700  48.1887593  35.1695235  51.8044966  47.1828975  35.5881617
  50.7450436  48.5457127  34.2775690  49.9929273  47.8110257  33.9900694
  48.7279982  50.1453364  30.4151596  48.2908015  51.2419121  30.0694865
  48.1240483  49.0005454  30.0989097  48.5501293  48.1664591  30.4768706
  46.9294886  48.8522984  29.2586693  46.2112372  49.6421868  29.4784201
  47.3303757  48.9513228  27.7806925  46.4280332  48.9568052  27.1692621
  47.8798569  49.8797063  27.6248894  48.1449260  47.8529142  27.4100828
  48.3857612  47.9312125  26.4840873  46.2596260  47.4963969  29.5206053
  46.8520807  46.6184834  30.1448226  45.0705913  47.2459695  28.9643063
  44.5118561  48.0034027  28.5979607  44.4786233  45.8946090  29.0021065
  44.4160045  45.5045960  30.0180140  43.0662813  45.9264838  28.3748617
  42.5120643  46.7480496  28.8287045  43.1126449  46.1207779  26.8471790
  43.6663441  45.2992935  26.3925571  42.0971464  46.1367250  26.4514402
  43.6072931  47.0639684  26.6152006  42.2395917  44.6633561  28.6854526
  41.3491343  44.6973720  28.0577351  42.8473898  43.8025827  28.4066156
  41.8228569  44.5397236  30.1580168  41.2145982  45.3999700  30.4374758
  41.2448503  43.6261260  30.2971100  42.7128545  44.5051830  30.7863568
  45.4058629  44.8354363  28.3624325  45.3975318  43.6741278  28.7560491
  46.2954323  45.2317163  27.4373506  46.1913814  46.1592937  27.0515101
  47.3283124  44.3507367  26.8678571  46.9229531  43.3493864  26.7226652
  47.8002837  44.8916651  25.5081379  48.2152326  45.8833788  25.6881953
  48.5896081  44.2260499  25.1588194  46.6957803  44.9840257  24.4378740
  45.9093065  45.6285375  24.8305116  47.1330723  45.4439264  23.5516634
  46.0987911  43.6169868  24.0639402  46.9108876  42.9448226  23.7868238
  45.5751497  43.2150784  24.9313321  45.1213423  43.7458730  22.8927406
  44.2386544  44.2893418  23.2297930  45.6056550  44.3024235  22.0903742
  44.7183555  42.4118053  22.3939470  44.2691738  41.8960913  23.1371660
  44.0748510  42.5208612  21.6231624  45.5360792  41.9082139  22.0811807
  48.5150814  44.0953959  27.8106267  49.1363760  43.0383002  27.6846279
  48.8183805  44.9794402  28.7685230  48.4950415  45.9333069  28.6930948
  49.7379854  44.6375507  29.8708626  50.5545461  44.0401459  29.4653563
  50.3320411  45.8712004  30.5703125  51.1146189  45.5166786  31.2411221
  50.7741493  46.4994071  29.7970100  49.3841852  46.6258697  31.3073398
  49.8209095  47.3770297  31.7155436  49.0739403  43.6877887  30.8761403
  49.7333547  42.7818383  31.3804145  47.7609643  43.8137537  31.1037138
  47.2771154  44.6350271  30.7697981  47.0013837  42.8274547  31.8897154
  47.5052525  42.6642899  32.8423921  45.5708151  43.3024429  32.1673171
  45.1310659  43.3884950  31.1736799  45.0485056  42.5282829  32.7294284
  45.4411406  44.6366863  32.8981728  46.3960734  45.0806662  33.5747457
  44.3302126  45.2004055  32.8282537  46.9544785  41.4455933  31.2120961
  47.0503772  40.4307775  31.8969343  46.8676772  41.3784593  29.8748117
  46.6381600  42.2235636  29.3716021  46.9768574  40.1158411  29.1120372
  46.2537587  39.3950204  29.4936717  46.7019023  40.3423127  27.6093535
  47.2433682  41.2384685  27.3063373  47.1351107  39.1642074  26.7333699
  46.5936921  38.2677256  27.0355076  46.9145862  39.3866639  25.6893476
  48.2059857  38.9981001  26.8505741  45.2090784  40.5636834  27.3494503
  44.8696468  41.4400194  27.9016490  45.0446888  40.7204823  26.2833875
  44.6488183  39.6883405  27.6780599  48.3311754  39.4289984  29.3378246
  48.3725512  38.2217643  29.5728156  49.4384194  40.1791951  29.3431736
  49.3787540  41.1467181  29.0595567  50.7619400  39.6318851  29.6826629
  51.0165882  38.8100469  29.0134579  51.8181310  40.7324470  29.5308405
  51.8236792  41.0686913  28.4940144  51.5707540  41.5703212  30.1826621
  53.2239446  40.3342959  29.8596778  53.7225912  40.1643102  31.1053781
  53.0430604  40.3387709  31.9395850  55.0479326  39.7889002  31.0343592
  55.6273746  39.6515133  31.8501234  55.4682759  39.6815702  29.7281330
  56.6945348  39.3426665  29.1457042  57.4872160  39.0237110  29.8224780
  56.8395225  39.4283074  27.7511860  57.7847849  39.1860488  27.2655011
  55.7518386  39.8326189  26.9604389  55.8370182  39.9254005  25.8777407
  54.5094938  40.1316568  27.5543115  53.7192865  40.4438606  26.8715217
  54.3343274  40.0632889  28.9516392  50.7854140  39.0389636  31.1010983
  51.2071840  37.8946005  31.2929554  50.2714244  39.7899635  32.0819117
  50.0102767  40.7396473  31.8583010  50.1508210  39.3464581  33.4697614
  51.1334857  39.0489441  33.8357596  49.6576139  40.5357179  34.3018389
  48.6705507  40.8393573  33.9531137  49.5985226  40.2461501  35.3510095
  50.3525757  41.3684677  34.1938801  49.2360900  38.1109018  33.6144050
  49.5719519  37.1774554  34.3417010  48.1439757  38.0313504  32.8428948
  47.8603023  38.8600646  32.3400414  47.2965685  36.8387675  32.7513524
  46.9540629  36.5519101  33.7455868  46.0721090  37.1169040  31.8729396
  45.4544224  37.8845250  32.3391161  46.3713762  37.4467153  30.8780710
  45.1836344  35.9040564  31.6787677  44.2664695  35.5201723  32.6761395
  44.1872699  36.0992537  33.5961895  43.4518741  34.3882683  32.4846149
  42.7381649  34.0979517  33.2556118  43.5564808  33.6344315  31.3056690
  42.9210146  32.7623646  31.1514549  44.4865724  34.0090013  30.3211092
  44.5824082  33.4117461  29.4143557  45.2895681  35.1453831  30.5007427
  45.9969171  35.4409126  29.7258752  48.0639465  35.6150275  32.2291981
  47.8925622  34.5211101  32.7578002  48.9647956  35.7842824  31.2542120
  49.0293703  36.6809816  30.7939295  49.8705950  34.7131828  30.8216927
  49.2689842  33.9012608  30.4131019  50.5214589  35.1100516  30.0426095
  50.7359592  34.1669415  31.9649137  50.9263974  32.9582228  32.0739516
  51.2066081  35.0380287  32.8677086  51.1339888  36.0241146  32.6616491
  51.9427574  34.6286185  34.0806919  52.6533843  33.8436756  33.8219002
  52.7176540  35.8116868  34.6958616  51.9966595  36.5616215  35.0212293
  53.5716630  35.3727297  35.8900548  54.2932568  34.6230836  35.5653488
  54.1015327  36.2349407  36.2949386  52.9285398  34.9474776  36.6605447
  53.6568612  36.4347975  33.6515241  53.0720898  36.7945744  32.8049399
  54.1972992  37.2685685  34.0996896  54.3683939  35.6838965  33.3080568
  51.0238453  33.9485674  35.1029638  51.3991257  32.9236975  35.6625192
  49.7927019  34.4327804  35.2762894  49.5963663  35.3376637  34.8728816
  48.7591936  33.8021686  36.1087259  49.1188184  33.6163586  37.1207752
  47.5774804  34.7869856  36.1794734  47.9702736  35.6856170  36.6551564
  47.3487183  34.9996828  35.1351900  46.2950412  34.3416529  36.9048676
  45.7876186  33.6236485  36.2605906  46.5558240  33.7070763  38.2653421
  47.0628457  34.4246874  38.9103708  45.6081711  33.4174206  38.7193845
  47.1832793  32.8245142  38.1409057  45.4378803  35.5892976  37.1335656
  45.1934694  36.0438245  36.1734781  44.5180772  35.3096663  37.6472483
  45.9909271  36.3039902  37.7430348  48.3673961  32.3924582  35.6167856
  48.1927756  31.4839376  36.4265826  48.3185605  32.1502840  34.3023600
  48.3473094  32.9241220  33.6539407  48.1845792  30.7904228  33.7593428
  47.2697142  30.3325836  34.1355134  48.1217915  30.8236157  32.2226395
  49.0035556  31.3833533  31.9107339  48.2182557  29.7863688  31.9018380
  46.8715634  31.4419601  31.5837586  46.7766879  32.4878653  31.8756177
  47.0235380  31.3484643  30.0614819  47.1180089  30.3027537  29.7687988
  46.1464265  31.7819029  29.5809538  47.9144124  31.8941505  29.7505645
  45.6037570  30.7082149  32.0145461  45.5013237  30.7643282  33.0982703
  44.7370644  31.1721511  31.5436869  45.6665282  29.6636106  31.7096517
  49.3440480  29.8779010  34.1904633  49.1226987  28.6984092  34.4610896
  50.5691904  30.4049609  34.2635319  50.7073010  31.3298802  33.8820230
  51.7435437  29.6634095  34.7295456  51.7386627  28.6466282  34.3368229
  53.0061600  30.3780913  34.2256647  52.8610351  30.6893745  33.1911886
  53.1723377  31.2566805  34.8490153  54.2752790  29.5819602  34.2597878
  54.8274785  28.9382445  33.2042274  54.2902501  28.9865301  32.2570453
  56.0093458  28.3341141  33.5873374  56.5886479  27.8025975  32.9533039
  56.2785655  28.5579857  34.9224229  57.3328779  28.1789595  35.7648322
  58.1334237  27.5900208  35.3171980  57.3046817  28.5693904  37.1153694
  58.1069107  28.2899733  37.7983443  56.2292067  29.3325303  37.6029882
  56.1774446  29.6389015  38.6477642  55.1823439  29.7239886  36.7467245
  54.4021825  30.3402605  37.1935555  55.1773065  29.3428788  35.3855269
  51.7152524  29.4344552  36.2554763  52.0152652  28.3285651  36.7053935
  51.2498501  30.4074078  37.0560087  51.1166563  31.3273640  36.6609905
  50.9518510  30.2107063  38.4916981  51.8698769  29.9289923  39.0074159
  50.3847318  31.4892641  39.1543387  49.5292746  31.7877847  38.5483868
  50.0409573  31.1878767  40.1438259  51.3546540  32.6724426  39.2881615
  52.2301934  32.3676204  39.8614110  51.6614590  32.9597157  38.2824558
  50.6789891  33.8727072  39.9816244  50.8188771  34.0352514  41.2135727
  50.0177600  34.6877107  39.2955169  49.9370485  29.0691544  38.6987184
  50.1539995  28.1868782  39.5273051  48.8485916  29.0438555  37.9201868
  48.6855669  29.8372861  37.3168709  47.8222571  27.9904951  37.9804308
  47.5095285  27.8159586  39.0099147  46.5926558  28.3926665  37.1288488
  46.9541987  28.7450103  36.1628047  45.6139394  27.2228080  36.9147687
  45.2515868  26.8702046  37.8804146  44.7706830  27.5595892  36.3117780
  46.1259345  26.4095541  36.4003970  45.8455091  29.5635412  37.8068009
  45.2707028  29.1477725  38.6343484  46.5984855  30.2487457  38.1961861
  44.9056005  30.3210428  36.8619362  44.1520145  29.6365461  36.4724853
  44.4157306  31.1284412  37.4062105  45.4797974  30.7375175  36.0343212
  48.4042670  26.6291739  37.5761919  48.3029018  25.6666229  38.3343810
  49.0473296  26.5439827  36.4073520  49.1247833  27.3810582  35.8475262
  49.5639944  25.2890015  35.8554519  48.7461019  24.5686098  35.8417763
  49.9985707  25.5637274  34.4122890  50.8231592  26.2765730  34.4100448
  50.3222859  24.6330249  33.9463474  49.1599018  25.9773263  33.8522267
  50.7057827  24.6562198  36.6779340  50.9392648  23.4559684  36.5782963
  51.4139667  25.4403427  37.4962345  51.2360634  26.4337007  37.4551277
  52.4689815  24.9552742  38.4083613  52.8569972  23.9825754  38.1060369
  53.6357000  25.9438147  38.4895128  54.3211822  25.5857682  39.2576386
  54.3833071  26.0903320  37.1707174  53.6985349  26.4488100  36.4021602
  55.1983885  26.8038226  37.2918476  54.7888057  25.1233707  36.8729638
  53.1807586  27.2038897  38.9249256  53.9213359  27.8129894  38.9712199
  51.9910265  24.6755748  39.8357902  52.8045499  24.2761292  40.6714408
  50.7022841  24.8773398  40.1431139  50.0943823  25.1985113  39.4032466
  50.1736303  24.8451594  41.5155798  49.1522082  25.2256171  41.5225038
  50.1673505  23.4116118  42.0684059  51.1912987  23.0611372  41.9388031
  49.9332512  23.4628319  43.1317375  49.2158170  22.4509998  41.3884010
  47.9243249  22.2712857  41.9168743  47.6089862  22.8503099  42.7848558
  47.0420441  21.3489445  41.3293811  46.0396367  21.2174569  41.7368024
  47.4516578  20.5978545  40.2074803  46.6073870  19.6989666  39.6416939
  45.7564646  19.6537073  40.0838278  48.7466679  20.7779232  39.6768862
  49.0653781  20.1967919  38.8115477  49.6272559  21.7074125  40.2641813
  50.6249003  21.8505073  39.8490552  50.8568054  25.8714072  42.4502938
  51.2240778  25.5733097  43.5882019  51.0157721  27.1067469  41.9667087
  50.8214111  27.2423973  40.9849134  51.4476835  28.2630586  42.7553441
  51.0388875  29.1471441  42.2660816  50.9991028  28.1548135  43.7428448
  52.9630325  28.4353127  42.9119172  53.4022927  29.0189199  43.9116602
  53.7803207  27.9467501  41.9688623  53.4361603  27.2920797  41.2810690
  55.2066261  28.3065964  41.9369641  55.6327020  28.1327982  42.9250697
  56.0019001  27.4889807  40.9089650  55.4996959  27.5919846  39.9470501
  57.0001439  27.9220573  40.8452941  56.1115345  26.0083174  41.2699214
  56.5458226  25.9319185  42.2667453  55.1073711  25.5844193  41.2781918
  57.1395432  25.0821129  40.0996411  56.8426650  23.4039560  40.7052397
  55.7784225  23.1771442  40.6416522  57.4020686  22.6933052  40.0968453
  57.1683307  23.3286047  41.7427200  55.3939562  29.7957142  41.6300968
  54.6510926  30.3878220  40.8476858  56.4320173  30.3959772  42.2127798
  56.9280655  29.9230592  42.9546586  56.8725470  31.7393789  41.8290893
  56.0224607  32.4213587  41.8479587  57.9394655  32.2617373  42.7917567
  58.8094798  31.6063269  42.7516109  58.2297030  33.2687518  42.4921170
  57.4314548  32.2908036  44.1129907  58.1083487  32.6198931  44.7089057
  57.4443962  31.7186067  40.4029560  58.3262523  30.8992682  40.1326651
  56.9967598  32.6050233  39.4941754  56.0031494  33.6465908  39.7124447
  56.2319785  34.1456179  40.6540972  55.0226873  33.1752532  39.7805179
  56.1173081  34.5796486  38.5127089  56.8716012  35.3493706  38.6760154
  55.1619303  35.0510146  38.2821255  56.5330194  33.6184972  37.4016278
  57.0678075  34.1291389  36.6007871  55.6822467  33.0800915  36.9840099
  57.4727952  32.6394983  38.1140255  57.3247584  31.6503322  37.6807428
  58.9578088  33.0232093  38.0175298  59.5260070  33.6301505  38.9290430
  59.5890580  32.6733214  36.8937465  59.0292613  32.1686942  36.2213788
  61.0254690  32.8397406  36.6208818  61.3311996  32.1714328  35.8159019
  61.3215546  34.2944890  36.1939729  61.1637397  34.9145022  37.0764566
  62.3757455  34.3179600  35.9178738  60.4865835  34.8280645  35.0457681
  59.2054207  35.3475675  35.2995094  58.8428525  35.4063219  36.3257606
  58.3930656  35.7897835  34.2404951  57.3962774  36.1824683  34.4412778
  58.8777663  35.7404790  32.9182322  58.0805217  36.1320582  31.8918459
  57.2122249  36.4220848  32.1808871  60.1832894  35.2678926  32.6651226
  60.5707364  35.2540135  31.6464015  60.9868743  34.8133132  33.7315685
  61.9961370  34.4503782  33.5372310  61.8935062  32.3691067  37.8141865
  62.5479479  33.2065499  38.4513552  61.8612636  31.0747906  38.1963478
  61.1462260  29.9771209  37.5514125  61.7406059  29.6309267  36.7058579
  60.1895355  30.3557595  37.1915860  60.9810871  28.9081457  38.6287658
  60.9280910  27.9119344  38.1896147  60.0884138  29.0886037  39.2276569
  62.2450892  29.0809395  39.4685360  63.0912428  28.5443186  39.0393961
  62.0987193  28.7618665  40.5004604  62.5069226  30.5919234  39.4199886
  62.0138426  31.0663324  40.2684616  64.0099503  30.9071675  39.4602730
  64.7152108  30.7270233  38.4730269  64.5056387  31.4112104  40.5950063
  63.8556653  31.5656086  41.3524990  65.9238984  31.7526383  40.8102559
  66.0333491  31.9372039  41.8789257  66.4951895  30.8661595  40.5347903
  66.4729032  32.9639481  40.0336863  67.4241224  33.5827150  40.4966318
  65.8689589  33.3404568  38.9015320  65.1194693  32.7513114  38.5679568
  66.2742811  34.4917084  38.0741459  67.3378707  34.4770952  37.8361065
  65.4519156  34.4989605  36.7617007  64.4020347  34.3687190  37.0241651
  65.6225805  35.8038180  35.9607004  66.6722094  35.9345206  35.6974577
  65.0239863  35.7533663  35.0511729  65.2924695  36.6481030  36.5659348
  65.8256833  33.2830331  35.8769820  66.7632636  33.5265769  35.3772516
  65.9801535  32.4359505  36.5453303  64.7662595  32.9196653  34.8274420
  64.6115733  33.7661594  34.1583981  65.1053324  32.0588944  34.2510722
  63.8284620  32.6755351  35.3264773  66.1224291  35.8005479  38.8653406
  65.0524456  36.0654528  39.4301014  67.1686996  36.6295275  38.8977725
  68.0306520  36.3256965  38.4678609  67.1482962  37.9317251  39.5678262
  66.7046116  37.8240454  40.5575981  68.5652882  38.4957748  39.7248440
  68.5614199  39.3957947  40.3397004  69.1540613  37.7221631  40.2177653
  69.1789477  38.8121449  38.3650356  69.6000373  37.8475677  37.6951487
  69.1759071  40.0061175  37.9801794  66.2773585  38.9441252  38.8111152
  66.0994020  38.8820386  37.5969456  65.7342481  39.9095396  39.5493849
  65.9404474  39.9272680  40.5379530  64.7502330  40.8591773  39.0288695
  64.0061010  40.3521933  38.4145944  64.0362372  41.5146750  40.2263460
  64.8021024  41.9844089  40.8435168  63.3572290  42.2782995  39.8469708
  63.2425504  40.4963433  41.0767811  63.8577618  39.6050732  41.2002863
  62.8754239  41.0531048  42.4460100  62.2597821  41.9441887  42.3233176
  62.3190589  40.3021386  43.0069098  63.7843094  41.3120229  42.9891389
  61.9440194  40.0794364  40.3859825  62.1745080  39.6198391  39.4248660
  61.4123360  39.3632178  41.0124367  61.3180677  40.9575822  40.2274162
  65.3412458  41.8843695  38.0428423  64.5950277  42.4229210  37.2294077
  66.6571064  42.1194413  38.0718640  67.1760659  41.7423838  38.8519973
  67.3680315  42.9744774  37.1096475  66.7985475  43.8908256  36.9544280
  68.7759150  43.3488813  37.6140231  69.4488627  43.3136611  36.7572850
  68.7251472  44.3693210  37.9937934  69.2618045  42.4897952  38.6318485
  70.1379619  42.7756692  38.9005939  67.4432220  42.3558559  35.7102577
  67.0764630  43.0174478  34.7410225  67.8424121  41.0862209  35.5829657
  68.1614082  40.5928151  36.4044836  67.9684477  40.4200747  34.2755280
  68.3843116  41.1100561  33.5413059  68.9076142  39.2057488  34.3968370
  68.5712121  38.5940092  35.2339198  68.8416108  38.6274490  33.4752552
  70.3672838  39.6348276  34.6294226  70.6446888  40.3161852  33.8251222
  70.4611208  40.1467469  35.5871466  71.3260207  38.4473988  34.6151198
  71.9943848  38.1460886  33.6397673  71.4251365  37.6907831  35.6794740
  72.0572361  36.9030332  35.6782422  70.8690151  37.8985557  36.4965792
  66.6241597  40.0355542  33.6198636  66.6161336  39.6400250  32.4554607
  65.4727026  40.1692671  34.3014862  65.5154292  40.4603243  35.2676951
  64.1521191  39.8019432  33.7356404  64.1861798  38.7479311  33.4599640
  62.9909600  40.0141840  34.7339857  63.0684022  41.0317771  35.1168779
  61.6027271  39.8077382  34.1049908  61.5243607  38.7901545  33.7222599
  60.8333660  39.9718496  34.8594784  61.4651963  40.5146921  33.2868201
  63.0806142  39.0228839  35.8966387  64.0245550  39.1639656  36.4231117
  62.2524925  39.1931339  36.5846279  63.0287389  38.0045625  35.5113708
  63.8531772  40.5302284  32.4227850  63.5533972  39.8704850  31.4313807
  63.9481036  41.8659962  32.3797440  64.1674168  42.3931398  33.2128830
  63.6554038  42.6066687  31.1424967  62.6589686  42.3439705  30.7872422
  63.7067766  44.1224106  31.3831216  62.9454041  44.3184476  32.1380923
  64.6819024  44.4262353  31.7638058  63.3862604  44.9119736  30.1234694
  62.0612609  45.2874738  29.8263500  61.2590053  45.0421462  30.5222664
  61.7711802  45.9803702  28.6297792  60.7557254  46.3241470  28.4328759
  62.8057651  46.2726067  27.7137786  62.5411751  46.8897442  26.5289042
  61.6094471  47.0873320  26.4087312  64.1238537  45.8754344  28.0047691
  64.9225056  46.0898982  27.2946557  64.4124584  45.2049532  29.2049975
  65.4366060  44.9077473  29.4305863  64.6125177  42.2076314  30.0087903
  64.1852470  41.9619011  28.8822188  65.9011247  42.0790537  30.3292728
  66.1677288  42.2866628  31.2810711  66.9521307  41.7152818  29.3779552
  66.9641054  42.4187888  28.5454687  68.3231741  41.7540138  30.0739249
  68.3536786  40.9356743  30.7932920  69.0868013  41.5962218  29.3122982
  68.5903679  43.0858702  30.8002210  68.4285715  43.8908710  30.0833552
  67.8642751  43.1688350  31.6089269  70.0101417  43.1905599  31.3749309
  70.6939997  42.1466828  31.4638393  70.3981476  44.3288078  31.7204105
  66.7021436  40.3321247  28.7635660  66.7495105  40.1872937  27.5448399
  66.3546335  39.3326650  29.5816254  66.4109593  39.5006709  30.5759597
  65.9622030  37.9957878  29.1234478  66.7525028  37.5523625  28.5177255
  65.7176931  37.0951376  30.3500223  65.0768571  37.6486414  31.0363618
  65.1850729  36.2171481  29.9845773  66.9954862  36.6504135  31.0867661
  67.6204256  37.5191360  31.2938239  66.6072494  35.9771590  32.4029384
  65.9826386  35.1080176  32.1966534  67.5077575  35.6601701  32.9289651
  66.0540983  36.6824967  33.0231183  67.8067119  35.6460344  30.2657018
  68.0993846  36.1015141  29.3196678  68.6992392  35.3583967  30.8213643
  67.2002519  34.7616540  30.0703135  64.7210459  38.0346345  28.2188131
  64.7059892  37.3769816  27.1766711  63.7011461  38.8228369  28.5755416
  63.7267750  39.2761967  29.4777098  62.4984403  38.9807656  27.7522455
  62.0719634  38.0045983  27.5213472  61.4479729  39.8088639  28.5124043
  61.9617873  40.7247246  28.8044542  60.6416613  40.0502741  27.8198129
  60.8633753  39.1282612  29.7623765  61.6732105  38.7829467  30.4050472
  60.0025121  40.1366087  30.5248715  59.1921344  40.4820519  29.8829556
  59.5848597  39.6609302  31.4122256  60.6161586  40.9864863  30.8236129
  60.0331292  37.9013224  29.3950894  60.6612915  37.1801700  28.8721641
  59.6359231  37.4459187  30.3022475  59.2084131  38.2004187  28.7481861
  62.8064721  39.5968204  26.3750376  62.2365050  39.1527541  25.3789097
  63.7310777  40.5575700  26.3007767  64.0869304  40.9190792  27.1741491
  64.1879313  41.1840376  25.0472201  63.3443043  41.4293048  24.4020560
  64.9264163  42.4872996  25.4089700  64.3636990  42.9559314  26.2163316
  65.9131231  42.2010067  25.7730388  65.0780357  43.4805125  24.2474840
  65.9109148  43.1493259  23.6272190  64.1672876  43.5048817  23.6491169
  65.3718342  44.8878636  24.7900664  66.5521839  45.1400101  25.1040359
  64.4156987  45.6998826  24.9161179  65.0571342  40.2485276  24.1763594
  65.1847733  40.4583096  22.9723300  65.6290752  39.1770275  24.7549213
  65.7049834  39.1903878  25.7619758  66.2274272  38.0356314  24.0194440
  66.6202160  38.3852235  23.0646658  67.3817588  37.3949625  24.8236927
  66.9149456  36.9304038  25.6922374  67.7981628  36.6214316  24.1784348
  68.5040636  38.3326565  25.2871060  68.0567013  39.0287280  25.9966497
  69.2376562  37.7117828  25.8013624  69.1946126  39.1176923  24.1690506
  69.7650128  38.4446809  23.5288958  68.4577905  39.6516186  23.5689544
  70.1444818  40.1246899  24.8257616  69.5770376  40.7190838  25.5418646
  70.9248599  39.5729395  25.3498615  70.7634156  41.0208365  23.8210889
  70.0404921  41.5325112  23.3356300  71.3819960  41.6705185  24.2851704
  71.2896213  40.4702905  23.1576843  65.2091990  36.9492065  23.6250541
  65.6139908  35.8672481  23.2102692  63.9128100  37.1929513  23.8163811
  63.7238276  38.0304470  24.3483454  62.8229738  36.2205502  23.6353615
  61.9388889  36.5771144  24.1639021  62.4615539  36.0207339  22.1490032
  63.4022660  36.0971696  21.6037347  62.0295734  35.0326203  21.9904965
  61.4872158  37.0923269  21.6404162  60.5550712  37.4569493  22.4042872
  61.6373842  37.5044215  20.4717565  62.8976575  34.9390858  24.4912596
  62.1941135  33.9519291  24.2375030  63.6271390  34.9854470  25.6142762
  64.4116083  35.6140761  25.7119124  63.3599305  34.0389689  26.6936890
  63.3668511  33.0293150  26.2830186  64.3990607  34.1173409  27.8198614
  65.3256010  33.8008908  27.3408189  64.5162685  35.1313002  28.2022865
  64.0766603  33.1770739  28.9690758  64.4321396  31.8148840  28.8943095
  65.0251819  31.4567461  28.0528004  64.0235947  30.9162092  29.9028712
  64.3082710  29.8656034  29.8455229  63.2526341  31.3807561  30.9918403
  62.8189466  30.5473771  31.9766889  63.0920880  29.6365762  31.8446470
  62.9089990  32.7453250  31.0663765  62.3184872  33.1031558  31.9097942
  63.3213066  33.6439445  30.0640470  63.0564475  34.6988692  30.1353466
  61.9355966  34.2562984  27.2271072  61.4657091  35.3840908  27.3987114
  61.2517788  33.1516378  27.5168694  61.6839682  32.2941523  27.2037716
  59.9773576  33.0649974  28.2391644  59.8718508  33.9371464  28.8843958
  58.7771764  33.0173631  27.2762886  58.8929586  32.0914247  26.7129665
  57.8957646  32.9465077  27.9136212  58.6102170  34.1922418  26.3008970
  59.5466783  34.2917538  25.7520451  57.8107806  33.9265115  25.6092389
  58.2736755  35.5248406  26.9834994  57.3771036  35.4122814  27.5930798
  59.1051097  35.8372919  27.6153150  58.0292012  36.5717807  25.9712955
  57.0561990  36.7802223  25.7983269  58.9454507  37.2498265  25.3082769
  60.1964355  37.2427055  25.6432460  60.4994432  36.7021159  26.4407729
  60.8631390  37.7777764  25.1053749  58.6089356  37.9417653  24.2669766
  57.6449189  37.9595356  23.9662173  59.3120297  38.4604984  23.7603471
  60.0178634  31.7740495  29.0499856  60.7112022  30.8385897  28.6489044
  59.2473382  31.7062279  30.1331611  58.7504489  32.5275610  30.4471872
  59.1545294  30.4868659  30.9408662  60.1397765  30.2335249  31.3322812
  58.1938620  30.6784138  32.1193222  57.2021328  30.8831781  31.7160306
  58.1692416  29.7492823  32.6887153  58.6187295  31.8285374  33.0376344
  59.6510074  31.6427347  33.3342496  58.5690938  32.7466532  32.4522272
  57.5978770  32.0124366  34.5200053  56.0459279  32.6156303  33.8128389
  55.6565528  31.8799550  33.1090861  55.3201123  32.7744084  34.6103862
  56.2246725  33.5564974  33.2923383  58.7271761  29.2818329  30.0917622
  57.9060467  29.3930974  29.1750263  59.3103629  28.1313353  30.3890894
  60.0948962  28.1990671  31.0215603  58.9947175  26.8267831  29.8152004
  59.0134622  26.8785818  28.7265936  60.0422518  25.7919563  30.2778355
  59.8513756  24.8948321  29.6889095  61.0109131  26.2082441  30.0012495
  60.0475123  25.4304848  31.7783206  59.0518258  25.0755713  32.0443012
  60.7605362  24.6108253  31.8669458  60.4570263  26.5728669  32.7302236
  61.1752042  27.5049762  32.2861259  60.0151561  26.5304956  33.8969646
  57.5588674  26.3756472  30.1328540  56.9004216  26.8942788  31.0407671
  57.0554928  25.4038761  29.3598003  57.5704857  25.1174161  28.5395428
  55.7515611  24.7832828  29.6137925  54.9968648  25.5549860  29.7654724
  55.3311299  23.9126749  28.4152833  55.3264306  24.5293310  27.5164994
  56.0526698  23.1043042  28.2968901  53.9299394  23.3200586  28.6371035
  54.0235727  22.5108616  29.3613506  53.2995549  24.1067842  29.0515673
  53.2956645  22.7826321  27.3508337  52.2583369  22.5269882  27.5669280
  53.3258318  23.5748060  26.6027362  53.9686482  21.5972310  26.8077068
  54.5269146  21.8155780  25.9948337  53.9712123  20.3618426  27.2569873
  53.4694900  20.0010719  28.4003942  53.0445137  20.6917755  29.0024105
  53.5069421  19.0317131  28.6815357  54.4582995  19.4418555  26.4861944
  54.8181575  19.6888027  25.5753600  54.4759499  18.4818857  26.7996352
  55.8147679  23.9657356  30.9115731  56.6276395  23.0431329  30.9726062
  54.9568065  24.2365268  31.9162418  54.0988320  25.4028889  32.0710584
  53.1765223  25.2325223  31.5157024  54.6143965  26.2711079  31.6605855
  53.8641752  25.5224518  33.5746494  52.9199821  26.0232812  33.7885851
  54.6784917  26.0609315  34.0594478  53.8345239  24.0637530  34.0203766
  52.8667415  23.5962425  33.8389096  54.1060180  23.9406844  35.0688253
  54.8992797  23.4209583  33.1258325  55.8696122  23.4854816  33.6181635
  54.5707566  21.9533837  32.8371484  53.8762093  21.6325322  31.8695140
  55.0200619  21.0637020  33.7198608  55.6964161  21.3668016  34.4059914
  54.6391851  19.6510053  33.6981852  54.9815177  19.1759225  32.7788355
  55.2938355  18.9412076  34.8898315  56.3682817  19.1167602  34.8364845
  54.8986342  19.3849627  35.8036134  55.0225520  17.4319907  34.8961229
  53.9500142  17.2704831  35.0041913  55.3579468  17.0172512  33.9455438
  55.7618572  16.7375713  36.0454599  55.6559647  17.2355321  37.1898549
  56.4218232  15.7139341  35.7614642  53.1072672  19.4945534  33.7082038
  52.4048709  20.1949598  34.4331025  52.5705106  18.6227640  32.8502896
  53.1932664  18.0775625  32.2714720  51.1233345  18.4151843  32.7042320
  50.9989735  17.5100293  32.1098180  50.7320142  18.2469685  33.7075621
  50.3337095  19.5608703  32.0438646  49.1831558  19.3477925  31.6684473
  50.9167306  20.7484909  31.8431342  51.8390900  20.9073719  32.2227516
  50.2536615  21.8525484  31.1433755  49.2722453  22.0449325  31.5768613
  51.1064499  23.1166994  31.2826887  51.2413551  23.4102579  32.3237090
  52.0811220  23.0109788  30.8063092  50.2957157  24.5207776  30.4645467
  51.2392989  25.4129231  30.7519928  50.0239982  21.4922218  29.6601234
  51.0026895  21.1513113  28.9906301  48.7908996  21.5647144  29.1182132
  47.5359822  21.7593202  29.8321935  47.3533939  22.8298904  29.9251521
  47.6311694  21.3199359  30.8251586  46.4810574  21.0567777  28.9842379
  45.4995189  21.5101746  29.1224858  46.4273336  19.9949580  29.2245590
  46.9979431  21.2685013  27.5628670  46.6780336  22.2309254  27.1634963
  46.6791346  20.4724164  26.8900301  48.5269236  21.2473761  27.7125411
  48.9129384  20.2457416  27.5232813  49.1740744  22.2372738  26.7349889
  49.1621879  23.4452883  26.9828329  49.6191297  21.7584059  25.5669905
  49.6727952  20.7548305  25.4667121  50.1031313  22.5989463  24.4560340
  51.0557903  23.0551209  24.7251896  50.3058759  21.7468689  23.1843911
  49.7435094  20.8232958  23.3217077  49.8847514  22.3073975  22.3497884
  51.7766404  21.4114887  22.8860075  51.8306108  20.8068419  21.9806952
  52.2508196  22.3764146  22.7066438  52.5049430  20.6879796  24.0287318
  53.7268318  20.9172376  24.2017275  51.8604162  19.9351256  24.7890620
  49.1727614  23.7836974  24.1515231  49.6531506  24.9128863  24.1479866
  47.8503103  23.5612349  24.0179615  47.5182431  22.6106874  24.0972720
  46.8581089  24.6336755  23.7632627  47.0426428  25.0646658  22.7792435
  45.4101062  24.0981153  23.8038118  45.2961572  23.7370882  24.8259539
  44.8000255  24.9905180  23.6641011  44.9531702  23.0050243  22.8196825
  45.1078699  23.3383933  21.7935080  45.5168925  22.0882059  22.9922025
  43.4458497  22.7355162  23.0529301  43.3266904  22.5151399  24.1137479
  42.9207221  23.6601148  22.8132265  42.8599432  21.5843810  22.2223698
  42.9930327  21.8246837  21.1675512  43.4149254  20.6769987  22.4605951
  41.4149995  21.3695750  22.5031656  40.9005025  22.2101185  22.2820794
  41.0719873  20.6062978  21.9376122  41.2915026  21.1464725  23.4804439
  46.9305348  25.7708440  24.7978121  46.7350524  26.9354802  24.4688712
  47.1806378  25.4389004  26.0690610  47.2685389  24.4571152  26.2892213
  47.2351275  26.4118536  27.1770041  46.4923397  27.1937976  27.0191146
  46.9489449  25.7254603  28.5301264  47.6727231  24.9202652  28.6562420
  47.0481968  26.6930437  29.7180226  46.3243453  27.4983194  29.5928389
  46.8374997  26.1563501  30.6430454  48.0533120  27.1123833  29.7627374
  45.5364672  25.1210424  28.5487760  45.4471272  24.3803657  27.7540947
  45.3579210  24.6430741  29.5119827  44.8008931  25.9102951  28.3934962
  48.5742341  27.1520717  27.1932685  48.6034875  28.3567343  27.4380669
  49.6822308  26.4699279  26.8919612  49.6226096  25.4668220  26.7903584
  51.0003915  27.1031214  26.7791985  51.1623718  27.7950422  27.6057015
  52.0800261  26.0259103  26.8263843  51.9118281  25.4638935  27.7450495
  51.9660861  25.3624104  25.9691295  53.4830146  26.6021527  26.8363196
  53.9279086  27.3147454  27.9645811  53.2707533  27.4243211  28.8272742
  55.2136712  27.8844491  27.9831364  55.5625288  28.4201471  28.8659885
  56.0613765  27.7387872  26.8663896  57.3000671  28.3030643  26.8743250
  57.4918899  28.7753843  27.6877852  55.6158417  27.0302999  25.7302076
  56.2697940  26.9204631  24.8651164  54.3249289  26.4646221  25.7141557
  53.9787431  25.9216098  24.8347280  51.1601463  27.9680714  25.5187558
  51.7799360  29.0272941  25.5701941  50.5460473  27.5672651  24.4062065
  50.2306325  26.6080761  24.3823467  50.3558319  28.3920423  23.2077968
  51.3093248  28.6684110  22.7577182  49.5634954  27.5443705  22.1987298
  50.1863041  26.6826911  21.9584858  48.6627263  27.2089475  22.7127400
  49.1735577  28.2689961  20.9054799  48.5004725  29.0873444  21.1611425
  50.0838036  28.6728784  20.4622748  48.4823430  27.3321978  19.8950616
  47.9306823  26.2874511  20.3188157  48.5108159  27.6829810  18.6948726
  49.6436423  29.7089809  23.5621917  50.0876036  30.7914272  23.1778020
  48.6113811  29.6274181  24.4074167  48.2527860  28.7046162  24.6072803
  47.8955033  30.7820723  24.9496922  47.6249896  31.4840921  24.1609656
  46.6004238  30.2612295  25.6127291  46.4673825  29.2326411  25.2774602
  46.8316989  30.2686036  26.6778851  45.3026723  31.0542757  25.3636812
  45.3433555  31.9315084  26.0093657  45.0834698  31.4975674  23.9138244
  45.0422107  30.6207921  23.2675570  44.1453862  32.0476225  23.8393972
  45.9066190  32.1401588  23.6014109  44.1206042  30.1436303  25.7104849
  44.1855530  29.8457761  26.7569858  43.1866562  30.6801735  25.5432611
  44.1473456  29.2560794  25.0783162  48.7770471  31.6379165  25.8850757
  48.7655957  32.8597968  25.7512084  49.6121865  31.0419111  26.7529442
  49.5339620  30.0470083  26.9083425  50.6389697  31.7922437  27.5112886
  50.1368599  32.5361723  28.1297991  51.4958815  30.8926963  28.4215625
  51.9742298  30.1698448  27.7606783  52.2539920  31.5444913  28.8557651
  50.7611018  30.1532265  29.5375236  50.2525238  30.8853819  30.1647379
  50.0249531  29.4867313  29.0881113  51.9025656  29.1784756  30.5625519
  50.7541389  28.0082798  31.3220648  50.2596326  27.4267461  30.5440024
  51.3025771  27.3373409  31.9832434  50.0064621  28.5538608  31.8977574
  51.6036801  32.5364931  26.5766643  51.8756418  33.7200182  26.7711746
  52.1010593  31.8660617  25.5303772  51.8731952  30.8847728  25.4579252
  53.0216868  32.4434194  24.5385702  53.8727849  32.9082147  25.0362614
  53.5417177  31.3265142  23.6145618  52.6940768  30.6924389  23.3546531
  53.9310760  31.7992958  22.7129089  54.6422208  30.4705887  24.2595746
  54.3044351  30.1435403  25.2429570  54.8260886  29.5993878  23.6308428
  55.9395897  31.2778610  24.4068950  56.1959108  31.7229664  23.4455004
  55.7889818  32.0670765  25.1434788  57.0588765  30.4292418  24.8471182
  56.7793469  29.6521923  25.4286306  58.3382112  30.5643082  24.5479848
  58.7891473  31.5015193  23.7599950  58.1469608  32.1643007  23.3496081
  59.7782609  31.5597812  23.5641397  59.1969750  29.7470079  25.0785457
  58.8791089  29.0240655  25.7081611  60.1785963  29.8382431  24.8590133
  52.3925677  33.5760085  23.7301544  53.0850389  34.5508562  23.4476538
  51.1023488  33.4886447  23.4104922  50.6413942  32.5995174  23.5411551
  50.3461799  34.5769609  22.7969694  50.8872150  34.9469917  21.9260748
  48.9985975  34.0121671  22.3329602  48.4412823  33.6459398  23.1951535
  48.4264315  34.7966391  21.8376521  49.1685895  33.1917848  21.6356979
  50.1893891  35.7779910  23.7533753  50.4221094  36.9207717  23.3582621
  49.8831594  35.5331850  25.0329872  49.6010754  34.5974220  25.2876938
  49.8762005  36.5682854  26.0715558  49.1879499  37.3716784  25.8089344
  49.4147188  35.9397662  27.3915908  49.9620152  35.0265708  27.6253426
  49.4945292  36.6346459  28.2275768  47.6649438  35.4671636  27.2952608
  47.5840345  34.9810111  28.5305776  51.2460080  37.2488191  26.2513568
  51.3099391  38.4419499  26.5409041  52.3412033  36.5114260  26.0497122
  52.1944548  35.5222475  25.9079722  53.7189764  37.0002826  26.1658779
  53.7445923  37.9171963  26.7547007  54.5817449  35.9483244  26.8623443
  54.5417040  35.0809891  26.2033865  55.6149576  36.2810033  26.9618237
  54.1517892  35.4782719  28.2144951  53.5036865  36.2061661  29.1542861
  53.2242264  37.2273111  28.8949317  53.3350370  35.4446975  30.2923300
  52.8686135  35.7902321  31.1188616  53.8843902  34.1849834  30.1484361
  53.9853175  33.0695278  30.9902850  53.5422636  33.1634562  31.9817381
  54.6365015  31.9133446  30.5266884  54.7248767  31.0295649  31.1585295
  55.1851738  31.8837653  29.2332098  55.7068097  31.0069453  28.8495664
  55.0706791  33.0053738  28.3911027  55.5124523  32.9034970  27.3998619
  54.4209089  34.1825305  28.8270749  54.3630430  37.4856971  24.8508289
  55.5979377  37.4998911  24.7345422  53.5732831  37.8987446  23.8536503
  52.5900742  37.6676609  23.8537352  54.1226107  38.6021659  22.6885565
  54.9460419  38.0189378  22.2763608  53.0677072  38.8067789  21.5901458
  52.1610902  39.1833079  22.0638237  53.4505173  39.5534529  20.8944200
  52.7470987  37.5145692  20.8276142  52.4128654  36.7508767  21.5298695
  51.9406233  37.7453321  20.1315912  53.9328128  36.9646910  20.0360877
  54.9919880  37.5593522  19.9182454  53.8176667  35.7808419  19.4792505
  54.5885817  35.3973382  18.9513145  52.9587366  35.2594249  19.5815483
  54.7586915  39.9405838  23.0838838  54.2535550  40.6528684  23.9550306
  55.8871780  40.2816585  22.4562898  56.2530807  39.6635363  21.7462619
  56.6745731  41.4632978  22.8222493  56.9153336  41.4442335  23.8851558
  57.9828042  41.4696574  22.0237908  58.5294884  40.5523622  22.2424346
  57.7819527  41.5260728  20.9539423  58.9034772  42.6040294  22.3468923
  59.1575549  43.6687840  21.5535708  58.6327683  43.7220575  20.5997046
  60.0790909  44.4947689  22.1702615  60.4313454  45.3394923  21.7431098
  60.4620455  43.9992536  23.3954698  61.3720951  44.4447193  24.3627889
  61.8917823  45.3805611  24.1573040  61.5638222  43.6796448  25.5218245
  62.2645408  43.9979256  26.2936994  60.8490353  42.4848775  25.7022400
  60.9765036  41.8755069  26.5969572  59.9400226  42.0388778  24.7219349
  59.4494858  41.0853216  24.9173957  59.7244356  42.7873017  23.5445837
  55.8826199  42.7648356  22.6362614  55.6899926  43.5131201  23.5947179
  55.3438933  43.0002250  21.4378047  55.6021207  42.3929611  20.6731815
  54.4647447  44.1331115  21.1563036  54.8279086  45.0430240  21.6340800
  54.4569293  44.3478658  19.6284589  55.5174586  44.3430139  19.3767582
  53.9645125  43.5063825  19.1410869  53.8392908  45.6404706  19.1096173
  54.0920315  46.0669438  18.0022290  53.0781439  46.3828460  19.8822337
  52.6772956  47.2365730  19.5208882  52.8976147  46.0961564  20.8337163
  53.0524904  43.8725377  21.7425281  52.4544461  42.8402313  21.4416832
  52.4663888  44.7979569  22.5357628  53.0916849  45.9725151  23.1328689
  53.7163004  46.4537566  22.3802984  53.7135970  45.6485169  23.9673445
  51.9321693  46.8525779  23.5803230  51.5720333  47.4740851  22.7604877
  52.2225700  47.4880977  24.4169133  50.8816361  45.8335178  24.0097755
  49.8509518  46.1714839  23.9022223  51.0709811  45.5721317  25.0508929
  51.1276757  44.6122279  23.1093802  51.1947109  43.7392696  23.7586477
  49.9825391  44.4139567  22.1013427  49.0009183  43.7613245  22.4479964
  50.0788760  44.9315844  20.8695250  50.8754890  45.5149482  20.6569368
  49.0678469  44.7165181  19.8156713  48.0775657  44.9794079  20.1876005
  49.3842946  45.5960808  18.6016374  48.7296935  45.3050856  17.7801032
  49.1944535  46.6364106  18.8657857  50.7364196  45.4494540  18.2026216
  50.9081776  46.0096395  17.4421670  48.9770396  43.2673798  19.3420701
  47.9024060  42.8344864  18.9374766  50.0780906  42.5233083  19.4248549
  50.8949561  42.9561405  19.8316552  50.2020117  41.1587579  18.9014682
  49.5830315  41.0359115  18.0127210  51.6696311  40.8890255  18.5202022
  52.2565182  40.7651925  19.4303276  51.6168476  39.9379556  17.9903153
  52.3382962  41.9422100  17.6181545  51.6741665  42.9380490  17.2224658
  53.5520945  41.7716623  17.3916569  49.6861645  40.1098684  19.9044824
  49.5593814  38.9268157  19.5868626  49.3861628  40.5484034  21.1337729
  49.6540832  41.4967700  21.3549489  48.7348847  39.7484847  22.1767997
  49.1305663  38.7329150  22.1644170  48.9932971  40.3594411  23.5634072
  48.4983254  41.3302583  23.5882305  48.5348838  39.6995307  24.2999366
  50.4814753  40.5360323  23.8915871  50.9357125  39.5495387  23.9843221
  50.9552515  41.0781343  23.0731963  50.6756718  41.3112385  25.1963147
  50.0187267  42.1807479  25.2181225  50.4574253  40.6701085  26.0503758
  52.0695253  41.7709930  25.2960950  52.7432821  41.1729383  24.8394970
  52.5050346  42.8364399  25.9302777  51.7586190  43.4887440  26.7646044
  50.8135242  43.1790812  26.9406863  52.1253841  44.3038177  27.2349636
  53.6983821  43.2892610  25.7113947  54.2993294  42.8206367  25.0485572
  54.0225203  44.1089113  26.2045546  47.2233620  39.6753165  21.9031056
  46.6436344  40.6996322  21.5310043  46.5484500  38.5418614  22.1580316
  47.1189526  37.3096731  22.6700859  47.8026938  37.5623307  23.4804947
  47.6737286  36.8304632  21.8634383  45.9372112  36.4699900  23.1415181
  45.7139607  36.6678163  24.1899088  46.1387016  35.4071580  23.0077599
  44.7973918  36.9277780  22.2322124  43.8277464  36.8251869  22.7194105
  44.7889228  36.3820321  21.2887139  45.0981183  38.4092245  21.9768368
  44.8690734  38.6396653  20.9363880  44.2939001  39.3460082  22.8986521
  44.8264028  39.9180117  23.8540309  43.0207939  39.6013194  22.5915986
  42.7098039  39.4135523  21.6491932  42.0569424  40.1952890  23.5425647
  42.5292745  41.0272291  24.0649411  40.8095829  40.7162515  22.8181295
  40.1524727  41.1859967  23.5500071  41.1190004  41.4566052  22.0804051
  40.1216920  39.6704764  22.1731506  39.3472543  40.0231159  21.7287505
  41.6396673  39.1895901  24.6205930  41.7579987  37.9738113  24.4348552
  41.1074825  39.6728571  25.7428739  41.2347535  40.6441224  25.9889333
  40.4671506  38.7897850  26.7156533  41.1173297  37.9359208  26.9061322
  40.1995172  39.5036735  28.0380824  39.8311619  40.5091065  27.8343226
  39.4712623  38.9667109  28.6458784  41.4393868  39.6613703  28.8876354
  42.0259075  38.5248846  29.4752703  41.6119278  37.5359727  29.2783591
  43.1425950  38.6638804  30.3139855  43.5974502  37.7815819  30.7642709
  43.6742426  39.9382666  30.5734686  44.5288285  40.0488103  31.2409736
  43.1021055  41.0718592  29.9705450  43.5216586  42.0595013  30.1619572
  41.9899274  40.9329430  29.1214059  41.5550843  41.8114546  28.6447206
  39.2063034  38.1167839  26.1642989  38.9430059  36.9843115  26.5566238
  38.4971682  38.7190031  25.2061291  38.6570568  39.7002068  25.0278757
  37.4266874  38.0428785  24.4650385  36.6944549  37.6769130  25.1847634
  36.7462899  39.0710744  23.5536344  37.4646201  39.4400591  22.8215470
  35.9097083  38.6014378  23.0362632  36.3801466  39.9037302  24.1542363
  37.9252696  36.8122043  23.6726718  37.3316544  35.7363475  23.7665442
  39.0419313  36.9228976  22.9402562  39.4762444  37.8293990  22.8416327
  39.6651021  35.7704337  22.2596564  38.9391013  35.3070639  21.5915917
  40.8836126  36.2069226  21.4333419  41.5309482  36.7636574  22.1109126
  41.3867583  35.2918877  21.1208431  40.5743444  37.0655464  20.2020107
  40.5167913  36.3233691  19.4057939  39.6494430  37.6417019  20.2284972
  41.7545387  38.0065897  19.9382820  42.8734413  37.5096855  19.7058468
  41.5793178  39.2325746  20.1303774  40.1374445  34.7044452  23.2571870
  39.8670091  33.5159326  23.0766335  40.8190219  35.1305793  24.3284184
  41.0594762  36.1105175  24.3731665  41.2997437  34.2455673  25.3988759
  41.9260662  33.4462671  25.0027213  42.1002568  35.0579274  26.4420052
  41.5228225  35.9492131  26.6875248  42.3795941  34.2599409  27.7243585
  42.9574303  33.3686823  27.4796871  42.9444162  34.8783481  28.4219611
  41.4354486  33.9656988  28.1827360  43.4436684  35.5614618  25.8670900
  44.1233309  34.7105185  25.8217546  43.2544480  35.9288053  24.8584504
  44.0789217  36.6798164  26.7084829  44.2688744  36.3130519  27.7171958
  45.0190596  36.9893231  26.2519246  43.3999899  37.5313383  26.7538934
  40.1232288  33.5038456  26.0438858  40.1827437  32.2834835  26.1903070
  39.0509563  34.2129303  26.4113140  39.0850830  35.2190705  26.3299714
  37.8792734  33.6085458  27.0387410  38.2034461  32.9851580  27.8720470
  36.9001486  34.6683694  27.5698263  37.2036338  35.5572120  28.1229582
  36.4253525  34.9671415  26.6352655  35.8396236  33.9898538  28.3937590
  36.1190547  33.2859914  29.5632867  35.0051087  32.5907934  29.8379809
  35.0080598  31.9470698  30.7175889  34.0517373  32.8334270  28.9308492
  33.1194925  32.4452828  28.9117826  34.5591804  33.7208242  28.0028789
  33.9385389  34.0536658  27.1709403  37.1860862  32.6266687  26.0995547
  36.9333364  31.4963945  26.5012559  36.9808060  32.9795421  24.8269426
  37.1276162  33.9378948  24.5439122  36.4377476  32.0389309  23.8414478
  35.4727494  31.6577214  24.1754490  36.2431912  32.7575976  22.4959710
  35.5411323  33.5733160  22.6686443  37.2120246  33.1671457  22.2100822
  35.7135615  31.8554514  21.3651967  35.6493611  32.4405862  20.4478110
  36.4306120  31.0457778  21.2296634  34.3406624  31.2487475  21.6546936
  33.3131419  31.7814296  21.2766043  34.2570245  30.1138746  22.3130385
  33.3511469  29.7108833  22.5056137  35.0990352  29.6502668  22.6231791
  37.3072208  30.7746874  23.7011233  36.7627586  29.6719202  23.6306156
  38.6389699  30.8986716  23.6950154  39.0428949  31.8229476  23.6434623
  39.5393387  29.7441043  23.6539863  39.2602460  29.1243723  22.8018485
  40.9744197  30.2470498  23.4455672  41.2715196  30.8618039  24.2952196
  41.6495638  29.3955949  23.3600975  41.0227542  30.8414283  22.5331653
  39.4069827  28.8521357  24.9067931  39.2662864  27.6345912  24.7809928
  39.4025919  29.4367352  26.1090943  39.5970384  30.4266036  26.1585968
  39.2292153  28.6973214  27.3665210  39.8960301  27.8354405  27.3913905
  39.5637626  29.6106500  28.5537206  39.3075331  30.6508897  28.3528546
  39.0240931  29.2680295  29.4365955  41.0326290  29.5879804  28.9089595
  41.5908624  28.4283543  29.4788083  40.9506653  27.5824147  29.7290756
  42.9736849  28.3607489  29.7252988  43.4098179  27.4585658  30.1541977
  43.7925219  29.4581428  29.4178163  44.8686868  29.3968605  29.5797225
  43.2261144  30.6346734  28.9018324  43.8587468  31.4993148  28.7011545
  41.8481975  30.6986629  28.6444856  41.4112932  31.6112741  28.2390780
  37.8382879  28.0769573  27.5342421  37.7339431  26.9270325  27.9576877
  36.7772769  28.7906702  27.1648231  36.9309699  29.7447386  26.8711714
  35.3992408  28.2987731  27.2339589  35.1792066  27.9164918  28.2307263
  34.4366241  29.4603498  26.9291353  34.8325944  30.3486645  27.4212774
  34.4406389  29.6114187  25.8496622  33.0017069  29.2106322  27.4041414
  32.3840434  29.9931277  26.9633542  32.6474498  28.2361915  27.0678880
  32.9100251  29.2877772  28.9317506  32.7120124  30.4156724  29.4440147
  33.0860573  28.2276934  29.5750265  35.1771453  27.1136356  26.2826079
  34.5082400  26.1497347  26.6527089  35.8056504  27.1338016  25.0973381
  36.1940535  28.0087856  24.7753981  35.8811928  25.9659229  24.2040802
  34.8626657  25.6196059  24.0286770  36.5202106  26.3169001  22.8515728
  37.4969125  26.7552177  23.0565882  36.6865575  25.1147100  21.9230834
  35.7101582  24.6761129  21.7172273  37.1436313  25.4378299  20.9877887
  37.3247083  24.3714265  22.4009891  35.6943669  27.2243134  22.1615348
  36.0947528  27.4427207  21.3167925  36.6309420  24.8108599  24.8618032
  36.0588117  23.7368382  24.9897348  37.8648521  25.0216222  25.3449253
  38.2727747  25.9412522  25.2555994  38.6771837  23.9526766  25.9553595
  38.7900198  23.1283903  25.2511441  40.0707694  24.4767533  26.3238396
  39.9365254  25.4108694  26.8692797  40.5367809  23.7389770  26.9770007
  40.9665261  24.7201749  25.1104539  40.9795270  23.8076151  24.5144955
  40.5275566  25.5288715  24.5261445  42.6711341  25.1647308  25.5600181
  42.4571299  26.8623127  26.1542293  41.7726169  26.8673231  27.0024721
  43.4219741  27.2636453  26.4642429  42.0478288  27.4790126  25.3540699
  38.0474874  23.3266733  27.2084950  38.2533652  22.1489401  27.4808196
  37.2415830  24.0775716  27.9644043  37.2643079  25.0786397  27.8323230
  36.4489642  23.5400498  29.0776068  37.0702594  22.9536166  29.7545022
  35.8611174  24.7313108  29.8567663  36.6525842  25.4348699  30.1149992
  35.1499524  25.2150106  29.1871553  35.1092060  24.4289309  31.1461284
  35.5954487  23.4883855  32.0787759  36.5268705  22.9590925  31.8777729
  34.8823522  23.2325003  33.2653681  35.2541286  22.4918362  33.9733932
  33.6933875  23.9299203  33.5377127  33.1379469  23.7294506  34.4538990
  33.2209011  24.8879903  32.6251562  32.3036554  25.4362230  32.8401010
  33.9289144  25.1403663  31.4361462  33.5646523  25.8898955  30.7335659
  35.4027697  22.4906133  28.6213237  34.8579037  21.7681226  29.4539714
  35.1872999  22.3548174  27.3043111  35.5409258  23.1144697  26.7404171
  34.4473097  21.2760189  26.6348149  34.0727426  20.5743235  27.3800814
  33.2407655  21.8401771  25.8330089  33.5455521  21.7433733  24.7909756
  32.4323083  21.1393429  26.0411637  32.7531831  23.2782181  26.0936284
  33.6540666  23.8838891  25.9952792  32.0307208  23.5765152  25.3339120
  32.1450402  23.5290733  27.4697461  31.3412277  22.7638111  27.9774579
  32.4486050  24.6539840  28.0807833  32.0620935  24.8497662  28.9931317
  33.0667486  25.3165481  27.6346795  35.3088620  20.3906496  25.6799637
  34.7532151  19.4305984  25.1404315  36.5906631  20.6945113  25.3928749
  37.0525267  21.3401243  26.0173469  37.3163808  20.2602137  24.1565896
  37.0052462  19.2613774  23.8506148  36.9678199  21.2551133  23.0243241
  35.8808070  21.3356362  23.0285941  37.4033779  22.2076475  23.3260988
  37.4513807  20.8958463  21.6025976  37.4878296  19.8065485  21.5883683
  36.7055410  21.2432769  20.8876750  38.8354993  21.4618577  21.2178732
  39.6397833  20.7359395  20.5846316  39.1838637  22.6177805  21.5656212
  38.8477352  20.0481248  24.2707215  39.2911947  18.9096837  24.0063478
  39.5880973  20.9872189  24.5542807  37.3808420  44.4164288  50.2996499
  37.5198930  45.7714249  50.0887748  38.1292142  46.1664906  48.9150475
  38.5679901  45.2270549  48.0118280  39.1948956  45.6835762  46.8054053
  38.9445333  44.9048406  45.6412621  38.8418934  43.6455027  45.8427170
  38.8154831  45.4860063  44.3121377  38.1438853  44.8703081  43.2766817
  38.0712694  45.5030590  42.0394221  38.6537779  46.7357638  41.8090749
  38.5813874  47.4223749  40.4840655  39.0762530  46.6276618  39.3967936
  38.6828903  47.0752936  38.0925611  39.4105225  48.2987901  37.6275324
  40.7715569  48.4023856  38.0791631  40.9500581  49.4753799  39.0516665
  41.3195976  47.1475480  38.4959470  40.5096897  46.3845891  39.4871322
  39.3234358  47.3374598  42.8606609  39.4054715  46.7188592  44.0989377
  38.4165513  43.8539661  48.2410934  37.8115944  43.4574978  49.4076803
  37.6160478  42.0620183  49.7208214  38.6895463  41.3877872  50.3632134
  39.7633751  42.1570887  50.6973091  40.8216234  41.6009802  51.3152984
  40.7693449  40.2461557  51.5833794  39.6947559  39.4495068  51.2533508
  39.6336738  38.0217613  51.5398988  40.7150349  37.2789554  51.9476385
  40.6417999  35.9187174  52.2196592  39.4469909  35.3298240  52.0691600
  38.3337569  36.0053886  51.6680320  38.4316568  37.3653512  51.4024584
  38.6611994  40.0706651  50.6362751  36.9120925  44.0815425  51.2220029
  37.1735072  46.5175161  50.7979453  38.2377723  47.2310963  48.7389375
  39.7973468  46.5294150  46.7612786  37.6377071  43.9189181  43.4345602
  37.5695510  44.9529897  41.2439220  37.5006677  47.5370585  40.3339940
  38.7425713  46.8521157  41.4071794  38.6266200  45.6720014  39.5180879
  38.8708179  46.2312376  37.4186599  37.6079535  47.2723166  38.1483263
  38.8849336  49.1949031  37.9820219  39.4336171  48.2913972  36.5325100
  41.3717041  48.7070030  37.2537144  40.5910137  50.4015669  38.5987276
  40.3775820  49.2272398  39.9470768  42.0164019  49.5500672  39.2722717
  42.3034837  47.3955462  38.9105240  41.4419892  46.5699596  37.5730678
  40.6346352  45.3064022  39.3433912  40.8145904  46.6666398  40.4964799
  39.7838268  48.3189866  42.7478635  39.9267924  47.2029530  44.9258221
  38.7536408  43.0988496  47.5380972  36.7222358  41.6379282  49.4667572
  41.6851338  42.1917161  51.6021348  41.6504487  39.8684244  52.0849411
  41.6722749  37.7797252  52.0439051  41.4440995  35.2602144  52.5416627
  37.3893782  35.4803854  51.5616992  37.5479720  37.9141848  51.0897864
  43.1933341  31.5348576  16.0303034  40.2982847  24.6009126  56.6486807
  37.0218978  13.6386889  27.3284556  59.1906945  39.8963877  15.6279597
  69.5761201  50.5041635  26.8107432  36.1373980  62.1448910  67.2065681
  25.1087900  28.3026033  30.2552467  49.9087672  30.6479499  56.0150027
  61.8213602  16.6396380  38.3774858  46.4985259  54.0236078  67.7616471
  77.0250932  43.2847008  34.0515167  48.3744754  21.7352657  15.8605979
  43.1292490  66.8656627  56.4847080  33.5991504  17.1575329  50.3441166
  32.7847243  19.7224049  19.1132889  44.7841633  42.9406315  13.7040323
  27.3464470  27.5237735  54.8667714  64.8467522  44.2962512  52.2113990
  23.6707637  57.8700595  66.2414776  52.9949193  11.0388161  37.9059558
  29.7503381  38.9229074  21.4066227  49.9328971  62.4564734  46.7945507
  68.0979642  24.9451743  34.9099444  29.4210191  18.4621866  31.3371202
  35.4671846  68.3812281  47.9776165  67.3745445  35.0525854  18.0072638
  11.8087341  30.6305872  65.5271895  55.1127935  59.1930003  62.8924335
  52.7851886  20.8650520  54.4769692  30.0818763  58.6202677  20.3784894
  40.6290297   2.5809836  47.3946980  48.7216163  62.3062379  38.6670654
  56.4253821  15.0442479  46.1005824  31.3099565  20.5092514  57.7560098
  23.1425642  34.9657568  26.7700276  54.1784115  51.8399073  65.2773944
  39.3015068  73.2624415  53.6175002  28.5717369  14.2470229  24.7589058
  56.5131393  28.6380995  54.3878737  61.7633673  32.6675352  14.2766787
  33.7452824   8.3989300  47.7008751  26.8567353  54.4892474  25.3276061
  30.5284400  58.3044994  73.1893985  71.1732798  17.8713231  36.6952788
  17.0012135  63.1323799  51.3342523  76.0915179  48.3808642  28.1450538
  42.3516475  35.6621841   7.8152471  19.2392320  33.8051259  68.1576267
  46.4710283  55.6290962  21.0395241  49.3966432   2.5369124  43.5520932
  63.0715670  51.7465514  54.2600740  11.2483563  47.6763111  54.0035804
  23.7658732  21.4873064  33.5517786  42.3960140  69.1906368  65.4628428
  74.8969035  37.2117665  17.3177584  48.7238917  33.8630132  86.0366014
  48.3890286  34.5407054  85.6010236  49.2365788  33.4735443  85.4482885
  48.7504498  33.9054710  85.8852805  53.5089707  27.3918696  88.3608614
  53.3929233  28.1426382  88.7900753  54.3045594  27.1342649  88.6104701
  53.6094297  27.4653543  88.4612706  51.2319013  28.1226340  86.6722904
  51.1470308  28.9787307  86.8172473  51.7203396  27.8470664  87.3405063
  51.2907910  28.2083661  86.7924986  48.8970968  31.0007844  84.8818960
  49.3122117  30.6692868  84.1903456  48.0662898  30.7676747  84.7539097
  48.8358977  30.9179100  84.7609808  51.5904358  27.2518404  84.0680162
  51.5084521  27.3220591  84.9335149  52.2284079  27.8148148  83.8763902
  51.6724196  27.3457375  84.1670111  45.4878434  34.1867541  88.6168340
  45.7776733  33.7956522  87.8927566  46.2181915  34.3684246  89.0573615
  45.6385319  34.1561355  88.5751147  45.5952306  37.5364313  90.4659182
  46.2476364  37.0040756  90.6950208  44.8977915  37.1832966  90.8527056
  45.5883024  37.4053836  90.5571350  53.5892224  29.8568728  89.8090161
  54.1550257  30.5161937  89.7248704  52.9420128  30.2018426  90.2806563
  53.5770981  30.0050669  89.8662918  50.0598802  32.8007512  89.2327240
  49.8185478  32.0675372  88.8254305  50.2400135  33.3494369  88.5793574
  50.0506426  32.7729903  89.0757463  54.7854922  29.9074955  86.6015798
  54.4061731  29.1212093  86.5945087  54.1221167  30.4561812  86.4587442
  54.6313397  29.8719779  86.5796595  50.1320491  30.4900658  82.4204573
  50.8993476  30.5500783  82.0110425  49.6851800  29.9181099  81.9360892
  50.1793918  30.4137234  82.2882284  53.0315021  32.1520446  86.9367484
  53.1134858  32.9587432  86.6128934  53.5164763  32.1716405  87.6608257
  53.1152179  32.2741109  86.9954382  46.8359563  32.0932569  87.1898925
  46.9052384  31.2347107  87.3291926  47.6148019  32.3104450  86.8617950
  46.9612413  31.9985433  87.1616083  51.2267051  34.5170270  91.4035419
  50.8346843  34.2136985  90.6858285  51.3820123  35.3539360  91.2140372
  51.1920641  34.5954107  91.2691916  46.1795091  26.7619424  83.8841683
  46.4687616  27.5384307  84.1585258  46.2666890  26.2508156  84.5856183
  46.2349347  26.8011343  84.0284181  50.5263793  30.7256251  87.2705027
  51.2497991  31.1914364  87.1269601  50.0864384  30.7929861  86.5202624
  50.5679485  30.8040088  87.1389809  50.7867642  34.7876956  87.4303088
  50.0696952  34.6137818  86.9650326  51.4374380  34.5529528  86.8978574
  50.7769493  34.7272748  87.2832306  57.1687941  29.7580767  87.9959944
  57.5521547  30.5072123  88.2258041  56.3732054  30.0046586  87.7371933
  57.1081723  29.9050460  87.9917517  59.4846852  40.4025311  85.4497028
  59.7242856  40.6103295  84.6372371  59.8062693  39.5982820  85.5585972
  59.5684010  40.3139412  85.3457581  54.7937142  32.3318707  89.2956566
  55.5483110  32.6997024  89.0573616  54.6164677  32.7058261  90.0635745
  54.8791621  32.4416895  89.3741454  53.1494207  34.7389026  85.9934679
  52.9669780  34.9560906  85.1675672  54.0119820  34.8528038  86.0493293
  53.2498796  34.7878924  85.8789166  58.8293926  31.7415436  89.0283703
  59.5580087  31.5631391  88.5821859  58.9188819  32.5833516  89.2390881
  58.9500588  31.8399315  88.9937220  52.6956234  38.0163198  84.5057152
  51.9814411  37.7301378  84.9179584  53.1800203  38.3559824  85.1463539
  52.6615597  38.0244848  84.6612787  51.8255565  36.6303169  89.3161626
  51.5380361  36.2604440  88.5793574  52.5126033  37.0998024  89.0545331
  51.8844462  36.6450138  89.1676702  49.3983759  37.4084382  90.1646907
  49.4999896  38.2110543  90.4927883  50.1939646  37.2071717  89.8669988
  49.5311665  37.4970280  90.1682263  57.1527675  42.2804732  83.8841683
  57.4420200  43.0569615  84.1585258  57.2399474  41.7693464  84.5856183
  57.2081931  42.3196651  84.0284181  59.6884898  34.5033433  88.0730690
  60.1428645  34.6743993  88.7978534  60.1624944  33.8901544  87.6728466
  59.8253218  34.4384318  88.1204452  53.9392359  35.9440515  83.1636265
  53.5905163  36.5960240  83.6267815  53.4588805  35.9297628  82.4360137
  53.8162603  36.0383568  83.1247357  54.3416490  39.4366156  86.0054887
  54.9761569  40.0326581  85.9404349  54.4242101  39.1369614  86.8200757
  54.4473041  39.4807065  86.1157973  55.9195473  35.3680132  85.9800329
  56.2411314  34.8883214  85.3259591  56.1822417  36.1779778  85.7891140
  56.0061498  35.4170030  85.8555821  58.9806584  37.3088256  87.4790993
  58.3871423  37.6305252  86.9275560  59.0181862  36.4629351  87.2712099
  58.8980973  37.2312584  87.3673764  56.9535816  37.9485506  85.5720323
  57.3334781  37.9665135  84.7871437  56.2128412  38.3939495  85.4511170
  56.9004654  38.0167281  85.4383891  56.9454987  34.1747034  88.2547954
  57.7670681  34.3445347  88.0129649  56.4824638  34.3294295  87.5314252
  56.9986149  34.2228767  88.1119598  48.4189741  10.8008263  72.9706060
  48.0841110  11.4785185  72.5350283  48.9316612  10.4113574  72.3822932
  48.4455322  10.8432841  72.8192852  53.2040531   4.3296827  75.2948661
  53.0880057   5.0804513  75.7240799  53.9996418   4.0720780  75.5444748
  53.3045121   4.4031674  75.3952753  50.9269837   5.0604471  73.6062951
  50.8421132   5.9165438  73.7512520  51.4154220   4.7848795  74.2745110
  50.9858734   5.1461793  73.7265033  48.5921792   7.9385975  71.8159007
  49.0072941   7.6070999  71.1243503  47.7613722   7.7054878  71.6879144
  48.5309801   7.8557231  71.6949854  51.2855182   4.1896535  71.0020208
  51.2035345   4.2598722  71.8675195  51.9234903   4.7526279  70.8103949
  51.3675020   4.2835506  71.1010158  45.1829258  11.1245672  75.5508387
  45.4727557  10.7334654  74.8267613  45.9132739  11.3062377  75.9913662
  45.3336143  11.0939486  75.5091194  49.7549626   9.7385643  76.1667287
  49.5136302   9.0053504  75.7594352  49.9350959  10.2872500  75.5133620
  49.7457250   9.7108034  76.0097510  54.4805746   6.8453086  73.5355844
  54.1012555   6.0590224  73.5285134  53.8171991   7.3939943  73.3927489
  54.3264221   6.8097910  73.5136641  49.8271315   7.4278789  69.3544620
  50.5944300   7.4878914  68.9450472  49.3802624   6.8559231  68.8700939
  49.8744742   7.3515365  69.2222330  52.7265845   9.0898577  73.8707530
  52.8085682   9.8965564  73.5468981  53.2115587   9.1094537  74.5948304
  52.8103003   9.2119240  73.9294429  46.5310387   9.0310700  74.1238972
  46.6003208   8.1725238  74.2631972  47.3098843   9.2482581  73.7957997
  46.6563237   8.9363564  74.0956129  50.9217875  11.4548401  78.3375465
  50.5297667  11.1515116  77.6198332  51.0770947  12.2917491  78.1480419
  50.8871465  11.5332238  78.2031962  45.8745915   3.6997555  70.8181730
  46.1638440   4.4762438  71.0925305  45.9617714   3.1886287  71.5196230
  45.9300171   3.7389474  70.9624228  50.2214617   7.6634382  74.2045074
  50.9448815   8.1292495  74.0609647  49.7815208   7.7307992  73.4542671
  50.2630309   7.7418219  74.0729856  50.4818466  11.7255087  74.3643135
  49.7647776  11.5515949  73.8990373  51.1325204  11.4907659  73.8318621
  50.4720317  11.6650880  74.2172353  56.8638765   6.6958898  74.9299990
  57.2472371   7.4450254  75.1598087  56.0682878   6.9424717  74.6711980
  56.8032547   6.8428592  74.9257564  53.9397365  25.8968202  77.5420513
  53.1880265  25.5183740  77.3136558  54.3883377  25.9286635  76.7939324
  53.8947032  25.8453809  77.3978016  59.3922325  26.3193571  72.9706060
  59.0573693  26.9970493  72.5350283  59.9049195  25.9298882  72.3822932
  59.4187906  26.3618149  72.8192852  58.9326616  28.2707840  78.9117172
  59.3165995  28.8394738  78.3721947  58.8685757  27.5457350  78.4322988
  58.9800043  28.2483303  78.7611035  55.5182121  25.9086594  79.8083286
  55.6192484  25.0986948  80.1180414  54.9223866  25.8143540  79.1782964
  55.4454660  25.7751622  79.7609524  64.1773115  19.8482135  75.2948661
  64.0612641  20.5989821  75.7240799  64.9729002  19.5906088  75.5444748
  64.2777704  19.9216982  75.3952753  55.3582861  30.8264183  81.2098142
  56.0020316  31.2677347  81.5994300  55.6839116  30.0217609  81.1228401
  55.5014689  30.7729378  81.2543619  48.7147165  21.9306880  79.4335620
  48.4797350  21.0974533  79.3267888  48.8532806  22.2111546  78.6196820
  48.7002828  21.8490384  79.2977975  56.0603440  23.8376158  76.5818004
  56.3819282  24.3781365  75.9779312  56.7075537  23.2672929  76.7140293
  56.2029496  23.8335333  76.5125039  58.1105149  15.8392153  76.6652390
  58.8085313  16.0180280  77.1573854  58.4257481  15.3162492  76.0422780
  58.2600486  15.7885925  76.6454400  58.2993084  22.2262598  76.6532182
  58.7386719  21.6179698  77.0986955  58.1497747  21.8469971  75.8817647
  58.3414550  22.0801069  76.6051349  55.7664727  20.8206610  83.8551007
  56.4113729  20.3279053  83.5361956  56.0066504  20.9631396  84.6817086
  55.8975312  20.7684052  83.9300541  58.3050818  23.6661515  83.5057900
  58.5874061  22.8712921  83.2844656  59.0336979  24.1442103  83.5262961
  58.4540382  23.6196112  83.4760915  61.9002420  20.5789779  73.6062951
  61.8153716  21.4350746  73.7512520  62.3886804  20.3034103  74.2745110
  61.9591318  20.6647100  73.7265033  62.8320854  17.1974573  75.1060686
  62.3032325  17.4134207  75.7657992  63.3545874  17.8910712  75.0261656
  62.8309307  17.3317710  75.1916285  54.7220461  21.0937790  73.9068154
  54.1377677  21.5987821  74.3134018  54.3190557  20.8680177  73.1664746
  54.5759765  21.1346038  73.8573179  50.2764490  26.8092551  80.7091826
  49.7932068  27.5343041  80.6851409  51.0887808  27.1068681  80.8201983
  50.3255238  26.9594905  80.7219105  56.3478644  25.6024732  83.3141640
  55.8305586  25.2432147  82.7102948  57.0453035  25.0786906  83.3247706
  56.3744225  25.4722420  83.2271899  59.1797676  17.3403442  72.3837075
  59.4193680  17.5481426  71.5712418  59.5013517  16.5360951  72.4926019
  59.2634834  17.2517543  72.2797628  54.4887966   9.2696838  76.2296613
  55.2433934   9.6375155  75.9913663  54.3115501   9.6436392  76.9975792
  54.5742445   9.3795026  76.3081501  53.1308687  27.3248727  80.8612106
  53.8329267  26.8100716  80.9184862  53.0506170  27.6522878  81.6658981
  53.2232448  27.2962953  80.9884898  52.8445031  11.6767157  72.9274726
  52.6620604  11.8939038  72.1015718  53.7070644  11.7906169  72.9833340
  52.9449620  11.7257055  72.8129213  52.4559463  23.5155079  80.3697714
  53.2948362  23.7478012  80.4171475  52.4871232  22.6459390  80.3004749
  52.5841180  23.4212025  80.3662358  53.0812166  23.9355954  84.6711019
  53.6210391  23.7927085  85.3414391  52.3982112  24.3352705  85.0395045
  53.0604320  23.9735625  84.8245441  58.5244750   8.6793567  75.9623749
  59.2530910   8.5009522  75.5161906  58.6139643   9.5211647  76.1730928
  58.6451412   8.7777446  75.9277267  52.3907058  14.9541329  71.4397199
  51.6765235  14.6679509  71.8519631  52.8751027  15.2937955  72.0803586
  52.3566421  14.9622979  71.5952834  59.5654376  23.4571283  71.8159007
  59.9805524  23.1256307  71.1243503  58.7346305  23.2240186  71.6879144
  59.5042384  23.3742539  71.6949854  48.8942725  20.9415024  82.1057185
  48.7118298  20.9161910  81.2529477  49.6292393  21.4113962  82.1446094
  48.9756788  21.0076387  81.9855103  62.0064745  17.8633103  77.7683256
  62.1011599  18.6022397  78.2222882  61.3823588  17.4350578  78.2017821
  61.9273775  17.9094424  77.8991404  62.2587766  19.7081843  71.0020208
  62.1767928  19.7784030  71.8675195  62.8967486  20.2711587  70.8103949
  62.3407603  19.8020814  71.1010158  55.6180937  19.4742581  80.4694735
  55.3600181  18.6414316  80.4426034  55.6729420  19.7000194  79.6287235
  55.5880715  19.3840352  80.3414871  54.5915649  17.0280343  80.9559629
  54.0165240  17.1872512  81.5923590  54.2151325  16.3915752  80.4928080
  54.4518462  16.9578156  80.9814188  59.3627876  19.7302297  74.0128815
  60.1768515  20.0217190  73.9011586  59.2987017  19.0762159  73.4387108
  59.4730615  19.6767492  73.9117652  55.2335784  23.2023815  79.1401127
  55.8709731  22.9635562  79.6852920  55.6590856  23.4060973  78.4054288
  55.3911951  23.1974825  79.1118284  49.9248427  25.4412151  83.0235431
  49.9652572  25.7127002  82.1955210  50.4842951  25.9654059  83.4393219
  50.0131773  25.5587906  82.9627319  55.8738599  18.4226104  73.4776016
  56.2583752  18.2033811  74.2292561  55.6250220  19.2489050  73.6077093
  55.8940672  18.5124251  73.6077093  57.6157256  23.6796237  80.8194913
  57.6896265  23.5171409  81.6736763  58.4326763  23.8686427  80.5755395
  57.7473615  23.6832980  80.9092939  51.3763013  24.0254100  77.8489357
  50.5501131  24.2715837  77.7223635  51.4375004  23.9466181  78.7151415
  51.2637180  24.0499049  77.9578301  56.1561842  26.6430980  75.5508387
  56.4460140  26.2519962  74.8267613  56.8865323  26.8247685  75.9913662
  56.3068726  26.6124794  75.5091194  54.0967758  28.6198363  78.6168536
  53.8768053  28.3295717  79.4095203  53.8762280  27.9613318  78.0886449
  54.0315352  28.4798071  78.6557445  53.0084705  20.7071679  80.8824238
  52.7197953  20.0809150  81.4169965  53.8768053  20.6491967  80.9488918
  53.0944957  20.6059223  80.9715193  56.2635713  29.9927753  77.3999229
  56.9159771  29.4604195  77.6290255  55.5661322  29.6396405  77.7867103
  56.2566431  29.8617276  77.4911396  53.2116978  22.3466930  76.8066603
  53.9662946  22.7279969  77.0202066  52.6187591  22.7978074  77.2613300
  53.2353692  22.4695758  76.9049481  64.2575632  22.3132167  76.7430208
  64.8233664  22.9725376  76.6588751  63.6103535  22.6581865  77.2146610
  64.2454388  22.4614108  76.8002964  54.5315205  23.5175492  82.1806718
  54.0095958  23.6575783  82.8658583  54.9189225  22.7586156  82.3708836
  54.5118906  23.4261015  82.3107795  51.5206389  13.5681300  76.2501673
  51.2331185  13.1982571  75.5133620  52.2076857  14.0376156  75.9885378
  51.5795286  13.5828270  76.1016749  60.7282210  25.2570951  76.1667287
  60.4868886  24.5238811  75.7594352  60.9083543  25.8057808  75.5133620
  60.7189834  25.2293342  76.0097510  55.9581530  20.5479511  77.5788209
  55.7624313  21.1554245  76.9848512  56.1815876  19.8547455  77.0979883
  55.9616171  20.5357036  77.4204290  54.3560060  17.4334249  77.6969078
  55.0782712  17.5975407  77.2372884  53.8768053  18.1543913  77.5908418
  54.3923791  17.5632478  77.6134692  49.0934583  14.3462513  77.0986954
  49.1950720  15.1488674  77.4267930  49.8890470  14.1449849  76.8010035
  49.2262489  14.4348412  77.1022310  60.0636908  16.2976781  78.9852564
  59.8171622  16.2172532  79.8189353  60.3922031  15.5130249  78.7915092
  60.0758151  16.1703047  79.0800087  55.0961690  27.2236272  85.2636574
  55.2451254  26.6639187  84.6109978  55.8761692  27.3028273  85.6469093
  55.2335784  27.1521837  85.2233523  65.4538330  22.3638394  73.5355844
  65.0745138  21.5775532  73.5285134  64.7904575  22.9125251  73.3927489
  65.2996804  22.3283218  73.5136641  57.6214991  27.3950914  86.5421065
  57.5458662  26.7259725  87.0971853  57.5504850  28.0968703  87.0561731
  57.5995598  27.3995822  86.6997913  58.2785238  25.9151913  77.3744671
  59.0435129  25.6461557  77.0527335  58.1763328  25.4301924  78.0914734
  58.3766733  25.8041478  77.4324498  60.8003898  22.9464097  69.3544620
  61.5676883  23.0064222  68.9450472  60.3535207  22.3744539  68.8700939
  60.8477325  22.8700673  69.2222330  63.6998428  24.6083885  73.8707530
  63.7818266  25.4150872  73.5468981  64.1848171  24.6279845  74.5948304
  63.7835586  24.7304548  73.9294429  57.5094932  19.2868721  82.5377608
  57.0857181  19.4873220  81.8016627  57.3339787  18.4397569  82.6501908
  57.4205812  19.1917503  82.4451298  57.0106625  30.8019234  84.9999066
  57.5002555  30.1030023  84.8174730  56.4390857  30.5043104  85.5875123
  56.9991155  30.6545458  85.0600106  52.7977377  19.7820773  77.9705581
  52.9541996  19.7167575  78.8261573  53.1377970  20.5569325  77.7584260
  52.8710611  19.8869971  78.0660175  59.3356521  19.1578656  76.8398944
  59.8772067  18.6549037  77.3037565  59.6503080  19.1043851  76.0288429
  59.4620918  19.0758077  76.7882756  57.5042971  24.5496008  74.1238972
  57.5735791  23.6910546  74.2631972  58.2831426  24.7667889  73.7957997
  57.6295821  24.4548872  74.0956129  61.8950459  26.9733709  78.3375465
  61.5030250  26.6700424  77.6198332  62.0503531  27.8102799  78.1480419
  61.8604048  27.0517546  78.2031962  49.3711638  16.9655723  78.2866348
  49.7510603  17.3840268  77.6226615  48.7967003  17.5469179  78.5935191
  49.3422963  17.1133582  78.2343089  62.0590133  23.5383698  78.2781496
  61.7004788  23.7098341  79.0545528  61.5728844  23.9996904  77.7209494
  61.9348830  23.6322669  78.3106765  56.8478499  19.2182863  70.8181730
  57.1371024  19.9947746  71.0925305  56.9350298  18.7071595  71.5196230
  56.9032755  19.2574782  70.9624228  53.0142440  18.5316128  82.9181842
  52.1730446  18.4320002  83.1260736  53.2232448  19.3011608  83.2696163
  52.9207132  18.6308171  83.0009157  50.4918007  16.1535665  80.7466593
  50.0974704  16.2278677  79.9716703  49.9358123  16.5393611  81.2974955
  50.3520819  16.2217439  80.7134253  55.8825202  13.7698047  76.7324142
  56.1584936  13.0516959  76.3201709  56.4823871  14.3682967  76.5245248
  56.0118466  13.7518418  76.6404903  59.3835722  11.4411564  75.0070737
  59.8379469  11.6122125  75.7318581  59.8575768  10.8279675  74.6068512
  59.5204042  11.3762449  75.0544498  52.9051248  20.9259890  84.3373475
  52.3139181  21.5669388  84.3076490  53.6672271  21.3497507  84.3104775
  52.9299508  21.0835729  84.3288622  62.6640764  26.3769202  81.7705500
  62.4660452  26.8660016  81.0761711  62.0428475  26.5810443  82.3489633
  62.5428328  26.4785740  81.7528723  56.7248742  18.1454099  76.1115744
  57.4690787  18.5328375  76.3498694  56.8709438  17.3011524  76.2756232
  56.8559327  18.0784571  76.1709714  61.6410118  14.6116127  75.0735417
  61.1133136  14.6944870  74.3841126  62.1005826  15.3533998  75.0700062
  61.6311968  14.7336789  74.9710112  53.6343183  12.8818646  70.0976312
  53.2855987  13.5338371  70.5607862  53.1539629  12.8675759  69.3700183
  53.5113427  12.9761700  70.0587404  61.1947200  23.1819690  74.2045074
  61.9181399  23.6477803  74.0609647  60.7547791  23.2493300  73.4542671
  61.2362892  23.2603527  74.0729856  54.0067091  15.5077177  75.6102357
  54.1470053  16.0049641  76.3130998  54.5049624  14.8063471  75.7516570
  54.1008172  15.4779155  75.7353936  54.0367314  16.3744288  72.9394934
  54.6712393  16.9704713  72.8744395  54.1192925  16.0747745  73.7540804
  54.1423865  16.4185196  73.0498020  55.6146297  12.3058263  72.9140376
  55.9362138  11.8261345  72.2599638  55.8773240  13.1157909  72.7231187
  55.7012322  12.3548161  72.7895868  50.5420302  18.5712128  76.2084480
  51.0512531  19.1676636  76.5895785  51.0154574  18.3038102  75.5260899
  50.6863677  18.6197944  76.1639002  61.4551050  27.2440395  74.3643135
  60.7380360  27.0701257  73.8990373  62.1057787  27.0092967  73.8318621
  61.4452900  27.1836187  74.2172353  58.0885755  28.2601696  83.3396199
  57.8651409  27.5020525  83.7080225  57.5995598  28.2899717  82.6176638
  57.9829204  28.1523920  83.2872940  52.9010833  15.2068387  79.0757660
  52.1822823  15.6232519  79.3430524  53.2723196  15.7722626  78.5249298
  52.8502765  15.3517668  79.0340467  56.7364212  28.4802154  80.7933283
  56.3224610  27.8176284  80.4037125  57.4211586  28.6280012  80.2728977
  56.7762583  28.4042812  80.6589780  60.1029506  27.6392239  81.5456900
  59.7045789  27.7494509  80.7777720  59.4880725  27.8474305  82.1283460
  59.9528395  27.6865807  81.5188199  58.6757408  14.2466387  74.4131040
  58.0822247  14.5683383  73.8615607  58.7132686  13.4007482  74.2052146
  58.5931797  14.1690715  74.3013811  54.6059987  12.7422438  79.1386985
  55.0817353  13.1039517  78.5037167  54.1048587  13.3978905  79.4187128
  54.6025346  12.8916626  79.0863726  67.8371349  22.2144206  74.9299990
  68.2204954  22.9635562  75.1598087  67.0415462  22.4610025  74.6711980
  67.7765131  22.3613899  74.9257564  56.6486640  14.8863637  72.5060369
  57.0285605  14.9043267  71.7211484  55.9079236  15.3317626  72.3851217
  56.5955478  14.9545412  72.3723938  57.4471394  21.7241144  73.8969159
  56.6382717  21.4007817  73.8502469  57.9546303  21.0174366  73.8297408
  57.4021061  21.5722460  73.8799454  48.0761671  19.1513337  79.6216524
  47.2107191  19.1399027  79.5099295  48.1760487  18.9643560  80.4687663
  47.9635838  19.1219398  79.7305468  53.7018681  28.9211235  83.1946629
  54.0165240  29.7347624  83.2024411  54.1112095  28.5361454  83.8628788
  53.8086779  28.9839938  83.2950721  60.6543201  24.3381282  80.7650441
  61.1254379  25.0521545  80.9340426  60.9903380  23.7380032  81.3010311
  60.7738316  24.3552746  80.8682817  56.6405811  11.1125166  75.1888001
  57.4621505  11.2823478  74.9469696  56.1775462  11.2672427  74.4654299
  56.6936973  11.1606899  75.0459645  51.0431701  22.8684344  82.8425238
  51.6476559  22.8280178  82.2139058  50.8359014  23.7155496  82.8729293
  51.1020599  22.9872346  82.7541354  64.9129949  41.4153510  77.5420513
  64.1612848  41.0369048  77.3136558  65.3615960  41.4471943  76.7939324
  64.8679615  41.3639117  77.3978016  70.3654908  41.8378879  72.9706060
  70.0306277  42.5155801  72.5350283  70.8781779  41.4484190  72.3822932
  70.3920490  41.8803457  72.8192852  69.9059200  43.7893148  78.9117172
  70.2898579  44.3580046  78.3721947  69.8418341  43.0642658  78.4322988
  69.9532627  43.7668611  78.7611035  66.4914705  41.4271902  79.8083286
  66.5925068  40.6172256  80.1180414  65.8956450  41.3328848  79.1782964
  66.4187243  41.2936930  79.7609524  75.1505699  35.3667443  75.2948661
  75.0345224  36.1175129  75.7240799  75.9461585  35.1091396  75.5444748
  75.2510288  35.4402290  75.3952753  59.6879749  37.4492188  79.4335620
  59.4529933  36.6159841  79.3267888  59.8265390  37.7296854  78.6196820
  59.6735411  37.3675692  79.2977975  61.9869836  29.6177919  82.3319927
  61.3674868  29.0270566  82.1629942  61.8853700  30.2089354  81.6984250
  61.8807512  29.6182001  82.2124917  67.0336024  39.3561466  76.5818004
  67.3551865  39.8966673  75.9779312  67.6808121  38.7858237  76.7140293
  67.1762079  39.3520641  76.5125039  69.0837732  31.3577461  76.6652390
  69.7817897  31.5365588  77.1573854  69.3990065  30.8347800  76.0422780
  69.2333069  31.3071233  76.6454400  61.7138969  33.1630201  84.5763496
  61.5897666  33.7492646  85.2113315  62.3657254  32.6690396  84.8775771
  61.7912619  33.1769005  84.7149426  69.2725667  37.7447906  76.6532182
  69.7119303  37.1365006  77.0986955  69.1230330  37.3655279  75.8817647
  69.3147133  37.5986377  76.6051349  66.7397310  36.3391918  83.8551007
  67.3846313  35.8464361  83.5361956  66.9799088  36.4816704  84.6817086
  66.8707896  36.2869360  83.9300541  72.8735004  36.0975087  73.6062951
  72.7886299  36.9536054  73.7512520  73.3619387  35.8219411  74.2745110
  72.9323901  36.1832408  73.7265033  73.8053437  32.7159881  75.1060686
  73.2764909  32.9319515  75.7657992  74.3278457  33.4096020  75.0261656
  73.8041890  32.8503018  75.1916285  65.6953045  36.6123098  73.9068154
  65.1110260  37.1173129  74.3134018  65.2923140  36.3865485  73.1664746
  65.5492349  36.6531346  73.8573179  61.2497074  42.3277859  80.7091826
  60.7664652  43.0528349  80.6851409  62.0620392  42.6253989  80.8201983
  61.2987821  42.4780213  80.7219105  70.1530259  32.8588750  72.3837075
  70.3926263  33.0666734  71.5712418  70.4746100  32.0546259  72.4926019
  70.2367417  32.7702851  72.2797628  65.4620550  24.7882146  76.2296613
  66.2166518  25.1560463  75.9913663  65.2848084  25.1621700  76.9975792
  65.5475028  24.8980334  76.3081501  64.1041271  42.8434035  80.8612106
  64.8061850  42.3286024  80.9184862  64.0238754  43.1708186  81.6658981
  64.1965031  42.8148261  80.9884898  63.8177614  27.1952465  72.9274726
  63.6353188  27.4124346  72.1015718  64.6803227  27.3091477  72.9833340
  63.9182204  27.2442363  72.8129213  63.4292046  39.0340387  80.3697714
  64.2680946  39.2663320  80.4171475  63.4603816  38.1644698  80.3004749
  63.5573764  38.9397333  80.3662358  69.4977334  24.1978875  75.9623749
  70.2263494  24.0194830  75.5161906  69.5872226  25.0396955  76.1730928
  69.6183996  24.2962754  75.9277267  59.4581894  35.6741553  84.8245441
  59.1920310  34.8580670  84.9836431  59.4720459  35.7194708  83.9540956
  59.4206617  35.5598458  84.7198923  63.3639641  30.4726637  71.4397199
  62.6497819  30.1864817  71.8519631  63.8483610  30.8123263  72.0803586
  63.3299005  30.4808287  71.5952834  70.5386959  38.9756591  71.8159007
  70.9538108  38.6441615  71.1243503  69.7078889  38.7425494  71.6879144
  70.4774968  38.8927847  71.6949854  59.8675308  36.4600332  82.1057185
  59.6850881  36.4347218  81.2529477  60.6024977  36.9299270  82.1446094
  59.9489372  36.5261695  81.9855103  72.9797328  33.3818411  77.7683256
  73.0744183  34.1207705  78.2222882  72.3556172  32.9535886  78.2017821
  72.9006358  33.4279732  77.8991404  59.8346218  33.3393833  82.2556251
  60.4119721  33.2030284  82.8948497  59.1360280  32.8829617  82.5101836
  59.8167240  33.2516099  82.3878541  73.2320349  35.2267151  71.0020208
  73.1500512  35.2969338  71.8675195  73.8700070  35.7896895  70.8103949
  73.3140187  35.3206122  71.1010158  66.5913521  34.9927889  80.4694735
  66.3332765  34.1599624  80.4426034  66.6462003  35.2185502  79.6287235
  66.5613298  34.9025660  80.3414871  65.5648233  32.5465651  80.9559629
  64.9897824  32.7057820  81.5923590  65.1883909  31.9101060  80.4928080
  65.4251045  32.4763464  80.9814188  55.3105052  32.1905726  78.9704070
  55.3965303  31.8137594  79.7517600  55.9380849  31.8166172  78.4924028
  55.4161603  32.0791208  79.0149547  70.3360460  35.2487605  74.0128815
  71.1501098  35.5402498  73.9011586  70.2719601  34.5947467  73.4387108
  70.4463199  35.1952800  73.9117652  66.2068368  38.7209122  79.1401127
  66.8442315  38.4820870  79.6852920  66.6323439  38.9246281  78.4054288
  66.3644534  38.7160133  79.1118284  60.8981010  40.9597459  83.0235431
  60.9385156  41.2312310  82.1955210  61.4575534  41.4839367  83.4393219
  60.9864356  41.0773214  82.9627319  66.8471183  33.9411412  73.4776016
  67.2316336  33.7219119  74.2292561  66.5982803  34.7674358  73.6077093
  66.8673256  34.0309558  73.6077093  68.5889840  39.1981545  80.8194913
  68.6628848  39.0356717  81.6736763  69.4059346  39.3871735  80.5755395
  68.7206198  39.2018287  80.9092939  62.3495597  39.5439408  77.8489357
  61.5233714  39.7901145  77.7223635  62.4107588  39.4651489  78.7151415
  62.2369764  39.5684357  77.9578301  64.5671620  25.6108349  78.8084797
  63.6994046  25.6830948  78.8742406  64.8546825  26.4130428  78.9972772
  64.4811368  25.7402496  78.8459563  67.1294426  42.1616288  75.5508387
  67.4192724  41.7705269  74.8267613  67.8597906  42.3432993  75.9913662
  67.2801310  42.1310102  75.5091194  65.0700341  44.1383671  78.6168536
  64.8500637  43.8481025  79.4095203  64.8494863  43.4798626  78.0886449
  65.0047935  43.9983379  78.6557445  63.9817288  36.2256987  80.8824238
  63.6930537  35.5994458  81.4169965  64.8500636  36.1677275  80.9488918
  64.0677540  36.1244531  80.9715193  67.2368297  45.5113061  77.3999229
  67.8892355  44.9789503  77.6290255  66.5393906  45.1581713  77.7867103
  67.2299015  45.3802583  77.4911396  64.1849562  37.8652238  76.8066603
  64.9395530  38.2465277  77.0202066  63.5920174  38.3163382  77.2613300
  64.2086275  37.9881066  76.9049481  75.2308215  37.8317475  76.7430208
  75.7966248  38.4910684  76.6588751  74.5836119  38.1767173  77.2146610
  75.2186972  37.9799416  76.8002964  65.5047788  39.0360799  82.1806718
  64.9828542  39.1761091  82.8658583  65.8921809  38.2771464  82.3708836
  65.4851489  38.9446323  82.3107795  62.4938972  29.0866608  76.2501673
  62.2063768  28.7167879  75.5133620  63.1809441  29.5561464  75.9885378
  62.5527870  29.1013578  76.1016749  71.7014793  40.7756259  76.1667287
  71.4601469  40.0424119  75.7594352  71.8816126  41.3243116  75.5133620
  71.6922417  40.7478650  76.0097510  66.9314114  36.0664819  77.5788209
  66.7356897  36.6739553  76.9848512  67.1548460  35.3732763  77.0979883
  66.9348755  36.0542344  77.4204290  65.3292644  32.9519556  77.6969078
  66.0515296  33.1160715  77.2372884  64.8500637  33.6729221  77.5908418
  65.3656375  33.0817786  77.6134692  60.0667167  29.8647821  77.0986954
  60.1683303  30.6673982  77.4267930  60.8623054  29.6635157  76.8010035
  60.1995073  29.9533719  77.1022310  60.8830899  29.9794999  84.8408076
  60.7416391  29.1278940  84.9652584  61.1671462  30.0223660  84.0170282
  60.9038745  29.8594749  84.7375700  71.0369491  31.8162089  78.9852564
  70.7904206  31.7357840  79.8189353  71.3654615  31.0315557  78.7915092
  71.0490735  31.6888354  79.0800087  76.4270913  37.8823702  73.5355844
  76.0477722  37.0960840  73.5285134  75.7637159  38.4310559  73.3927489
  76.2729388  37.8468526  73.5136641  69.2517821  41.4337221  77.3744671
  70.0167712  41.1646865  77.0527335  69.1495911  40.9487232  78.0914734
  69.3499317  41.3226786  77.4324498  71.7736482  38.4649405  69.3544620
  72.5409467  38.5249530  68.9450472  71.3267791  37.8929846  68.8700939
  71.8209909  38.3885981  69.2222330  74.6731012  40.1269193  73.8707530
  74.7550849  40.9336179  73.5468981  75.1580754  40.1465152  74.5948304
  74.7568170  40.2489856  73.9294429  68.4827515  34.8054029  82.5377608
  68.0589764  35.0058528  81.8016627  68.3072370  33.9582877  82.6501908
  68.3938396  34.7102811  82.4451298  63.7709960  35.3006081  77.9705581
  63.9274579  35.2352883  78.8261573  64.1110553  36.0754633  77.7584260
  63.8443195  35.4055279  78.0660175  70.3089105  34.6763964  76.8398944
  70.8504650  34.1734345  77.3037565  70.6235664  34.6229159  76.0288429
  70.4353502  34.5943385  76.7882756  68.4775555  40.0681316  74.1238972
  68.5468375  39.2095854  74.2631972  69.2564010  40.2853197  73.7957997
  68.6028405  39.9734180  74.0956129  72.8683042  42.4919017  78.3375465
  72.4762834  42.1885732  77.6198332  73.0236114  43.3288107  78.1480419
  72.8336632  42.5702854  78.2031962  60.3444222  32.4841031  78.2866348
  60.7243187  32.9025576  77.6226615  59.7699586  33.0654487  78.5935191
  60.3155547  32.6318890  78.2343089  73.0322717  39.0569006  78.2781496
  72.6737372  39.2283649  79.0545528  72.5461428  39.5182211  77.7209494
  72.9081414  39.1507977  78.3106765  67.8211082  34.7368171  70.8181730
  68.1103607  35.5133054  71.0925305  67.9082881  34.2256903  71.5196230
  67.8765339  34.7760090  70.9624228  63.9875023  34.0501436  82.9181842
  63.1463030  33.9505310  83.1260736  64.1965031  34.8196916  83.2696163
  63.8939716  34.1493479  83.0009157  61.4650590  31.6720973  80.7466593
  61.0707288  31.7463985  79.9716703  60.9090707  32.0578919  81.2974955
  61.3253403  31.7402747  80.7134253  66.8557785  29.2883355  76.7324142
  67.1317520  28.5702267  76.3201709  67.4556455  29.8868275  76.5245248
  66.9851050  29.2703726  76.6404903  70.3568306  26.9596872  75.0070737
  70.8112052  27.1307433  75.7318581  70.8308351  26.3464983  74.6068512
  70.4936626  26.8947757  75.0544498  63.8783831  36.4445198  84.3373475
  63.2871764  37.0854696  84.3076490  64.6404855  36.8682815  84.3104775
  63.9032092  36.6021037  84.3288622  67.6981326  33.6639407  76.1115744
  68.4423371  34.0513683  76.3498694  67.8442022  32.8196832  76.2756232
  67.8291911  33.5969879  76.1709714  72.6142701  30.1301434  75.0735417
  72.0865720  30.2130178  74.3841126  73.0738409  30.8719306  75.0700062
  72.6044552  30.2522097  74.9710112  64.6075766  28.4003954  70.0976312
  64.2588571  29.0523679  70.5607862  64.1272212  28.3861067  69.3700183
  64.4846010  28.4947008  70.0587404  61.1359693  38.1179296  85.4807392
  60.6059618  37.4271735  85.5302366  61.4084787  38.1089481  84.6520100
  61.0984416  38.0146427  85.3654808  72.1679784  38.7004998  74.2045074
  72.8913983  39.1663111  74.0609647  71.7280375  38.7678608  73.4542671
  72.2095476  38.7788835  74.0729856  56.4155535  34.7907060  82.8375740
  56.3098985  34.7453904  81.9727824  55.6655755  35.1360840  83.1190025
  56.2891138  34.8347968  82.7513070  64.9799675  31.0262484  75.6102357
  65.1202636  31.5234949  76.3130998  65.4782208  30.3248779  75.7516570
  65.0740756  30.9964463  75.7353936  65.0099897  31.8929595  72.9394934
  65.6444977  32.4890021  72.8744395  65.0925508  31.5933053  73.7540804
  65.1156448  31.9370504  73.0498020  66.5878880  27.8243571  72.9140376
  66.9094721  27.3446653  72.2599638  66.8505824  28.6343217  72.7231187
  66.6744906  27.8733469  72.7895868  61.5152885  34.0897436  76.2084480
  62.0245115  34.6861944  76.5895785  61.9887158  33.8223410  75.5260899
  61.6596261  34.1383252  76.1639002  72.4283633  42.7625703  74.3643135
  71.7112943  42.5886565  73.8990373  73.0790371  42.5278275  73.8318621
  72.4185484  42.7021495  74.2172353  63.8743417  30.7253695  79.0757660
  63.1555406  31.1417827  79.3430524  64.2455779  31.2907934  78.5249298
  63.8235349  30.8702976  79.0340467  69.6489991  29.7651695  74.4131040
  69.0554831  30.0868691  73.8615607  69.6865269  28.9192790  74.2052146
  69.5664381  29.6876023  74.3013811  65.5792571  28.2607745  79.1386985
  66.0549937  28.6224825  78.5037167  65.0781170  28.9164213  79.4187128
  65.5757930  28.4101934  79.0863726  78.8103932  37.7329514  74.9299990
  79.1937538  38.4820870  75.1598087  78.0148045  37.9795333  74.6711980
  78.7497714  37.8799207  74.9257564  58.5534816  32.9250113  85.3548742
  58.0061535  32.2550759  85.4729610  59.3427194  32.5579961  85.4192209
  58.5886999  32.7715100  85.3817442  67.6219224  30.4048945  72.5060369
  68.0018189  30.4228574  71.7211484  66.8811820  30.8502934  72.3851217
  67.5688061  30.4730720  72.3723938  57.3121785  32.1370921  82.5094765
  57.1343546  31.6847530  83.2349680  57.0240807  32.9397082  82.6933242
  57.2434738  32.1893479  82.6438268  68.4203978  37.2426452  73.8969159
  67.6115300  36.9193125  73.8502469  68.9278887  36.5359674  73.8297408
  68.3753645  37.0907768  73.8799454  59.0494255  34.6698645  79.6216524
  58.1839774  34.6584335  79.5099295  59.1493071  34.4828868  80.4687663
  58.9368422  34.6404706  79.7305468  67.6138394  26.6310473  75.1888001
  68.4354089  26.8008786  74.9469696  67.1508045  26.7857734  74.4654299
  67.6669557  26.6792206  75.0459645  62.0164285  38.3869652  82.8425238
  62.6209142  38.3465486  82.2139058  61.8091598  39.2340804  82.8729293
  62.0753182  38.5057654  82.7541354  57.2515567  37.3704269  82.7124161
  57.1539845  36.5600541  83.0214217  58.0344437  37.3496063  82.3270429
  57.3531704  37.2471359  82.7011024  81.1262843  48.3774058  72.3837075
  81.3658847  48.5852042  71.5712418  81.4478684  47.5731567  72.4926019
  81.2100001  48.2888159  72.2797628  76.4353133  40.3067454  76.2296613
  77.1899101  40.6745771  75.9913663  76.2580668  40.6807008  76.9975792
  76.5207612  40.4165642  76.3081501  74.7910198  42.7137773  72.9274726
  74.6085771  42.9309653  72.1015718  75.6535811  42.8276785  72.9833340
  74.8914787  42.7627671  72.8129213  80.4709917  39.7164183  75.9623749
  81.1996078  39.5380138  75.5161906  80.5604810  40.5582263  76.1730928
  80.5916579  39.8148062  75.9277267  74.3372225  45.9911945  71.4397199
  73.6230402  45.7050125  71.8519631  74.8216194  46.3308571  72.0803586
  74.3031588  45.9993595  71.5952834  73.4671556  44.6051916  76.2501673
  73.1796352  44.2353187  75.5133620  74.1542024  45.0746771  75.9885378
  73.5260453  44.6198886  76.1016749  71.0399751  45.3833129  77.0986954
  71.1415887  46.1859290  77.4267930  71.8355637  45.1820465  76.8010035
  71.1727656  45.4719027  77.1022310  78.7943666  50.2553479  70.8181730
  79.0836191  51.0318362  71.0925305  78.8815465  49.7442211  71.5196230
  78.8497922  50.2945398  70.9624228  75.5808350  43.9189262  70.0976312
  75.2321154  44.5708987  70.5607862  75.1004796  43.9046375  69.3700183
  75.4578594  44.0132316  70.0587404  75.9832481  47.4114903  72.9394934
  76.6177560  48.0075328  72.8744395  76.0658092  47.1118361  73.7540804
  76.0889032  47.4555812  73.0498020  77.5611464  43.3428879  72.9140376
  77.8827305  42.8631961  72.2599638  77.8238408  44.1528525  72.7231187
  77.6477489  43.3918777  72.7895868  80.6222575  45.2837003  74.4131040
  80.0287414  45.6053999  73.8615607  80.6597853  44.4378098  74.2052146
  80.5396964  45.2061331  74.3013811  78.5951807  45.9234253  72.5060369
  78.9750772  45.9413882  71.7211484  77.8544403  46.3688242  72.3851217
  78.5420645  45.9916028  72.3723938  78.5870978  42.1495781  75.1888001
  79.4086672  42.3194094  74.9469696  78.1240629  42.3043042  74.4654299
  78.6402140  42.1977514  75.0459645  53.6348189   2.8346333  64.4760560
  52.8831088   2.4561871  64.2476605  54.0834201   2.8664766  63.7279370
  53.5897856   2.7831940  64.3318062  58.6277440   5.2085971  65.8457219
  59.0116819   5.7772870  65.3061994  58.5636581   4.4835481  65.3663035
  58.6750867   5.1861434  65.6951081  55.0533685   7.7642314  68.1438189
  55.6971140   8.2055478  68.5334347  55.3789940   6.9595740  68.0568447
  55.1965513   7.7107509  68.1883666  49.9715314   3.7470682  67.6431873
  49.4882892   4.4721172  67.6191456  50.7838632   4.0446812  67.7542030
  50.0206062   3.8973036  67.6559152  52.8259511   4.2626858  67.7952152
  53.5280091   3.7478847  67.8524909  52.7456994   4.5901010  68.5999027
  52.9183272   4.2341084  67.9224945  49.6199251   2.3790282  69.9575478
  49.6603396   2.6505133  69.1295257  50.1793775   2.9032190  70.3733265
  49.7082597   2.4966037  69.8967366  55.8512666   3.5809111  62.4848433
  56.1410964   3.1898093  61.7607660  56.5816147   3.7625816  62.9253709
  56.0019550   3.5502925  62.4431240  53.7918582   5.5576494  65.5508583
  53.5718877   5.2673849  66.3435250  53.5713104   4.8991449  65.0226495
  53.7266176   5.4176202  65.5897492  55.9586537   6.9305884  64.3339276
  56.6110595   6.3982326  64.5630302  55.2612146   6.5774536  64.7207150
  55.9517255   6.7995407  64.4251443  54.7912514   4.1614403  72.1976621
  54.9402078   3.6017319  71.5450025  55.5712516   4.2406404  72.5809140
  54.9286608   4.0899968  72.1573570  57.3165815   4.3329046  73.4761112
  57.2409486   3.6637856  74.0311900  57.2455674   5.0346834  73.9901778
  57.2946422   4.3373953  73.6337960  56.7057449   7.7397365  71.9339112
  57.1953379   7.0408155  71.7514777  56.1341681   7.4421235  72.5215170
  56.6941979   7.5923589  71.9940153  57.7836579   5.1979827  70.2736245
  57.5602233   4.4398656  70.6420272  57.2946422   5.2277848  69.5516685
  57.6780028   5.0902051  70.2212986  56.4315036   5.4180285  67.7273330
  56.0175434   4.7554415  67.3377172  57.1162410   5.5658144  67.2069024
  56.4713407   5.3420943  67.5929827  59.7980330   4.5770370  68.4796947
  59.3996613   4.6872640  67.7117767  59.1831549   4.7852436  69.0623506
  59.6479219   4.6243938  68.4528246  53.3969505   5.8589367  70.1286676
  53.7116064   6.6725755  70.1364458  53.8062919   5.4739585  70.7968835
  53.5037603   5.9218069  70.2290768  64.6080773  18.3531641  64.4760560
  63.8563672  17.9747179  64.2476605  65.0566784  18.3850074  63.7279370
  64.5630439  18.3017248  64.3318062  70.0605732  18.7757010  59.9046107
  69.7257101  19.4533932  59.4690329  70.5732603  18.3862321  59.3162979
  70.0871313  18.8181588  59.7532899  69.6010024  20.7271279  65.8457219
  69.9849403  21.2958178  65.3061994  69.5369165  20.0020789  65.3663035
  69.6483451  20.7046742  65.6951081  66.1865529  18.3650033  66.7423333
  66.2875892  17.5550387  67.0520460  65.5907274  18.2706979  66.1123011
  66.1138067  18.2315061  66.6949571  74.8456522  12.3045574  62.2288708
  74.7296048  13.0553260  62.6580846  75.6412409  12.0469527  62.4784795
  74.9461112  12.3780421  62.3292800  66.0266268  23.2827622  68.1438189
  66.6703724  23.7240786  68.5334347  66.3522524  22.4781048  68.0568447
  66.1698097  23.2292817  68.1883666  59.3830573  14.3870319  66.3675666
  59.1480757  13.5537972  66.2607935  59.5216214  14.6674985  65.5536867
  59.3686235  14.3053823  66.2318021  61.6820660   6.5556050  69.2659974
  61.0625692   5.9648697  69.0969989  61.5804524   7.1467485  68.6324297
  61.5758336   6.5560133  69.1464964  66.7286848  16.2939597  63.5158050
  67.0502689  16.8344804  62.9119359  67.3758944  15.7236368  63.6480340
  66.8712903  16.2898772  63.4465086  68.7788556   8.2955592  63.5992437
  69.4768721   8.4743719  64.0913900  69.0940889   7.7725931  62.9762827
  68.9283893   8.2449364  63.5794447  61.4089793  10.1008332  71.5103543
  61.2848490  10.6870777  72.1453362  62.0608078   9.6068527  71.8115818
  61.4863443  10.1147136  71.6489472  68.9676491  14.6826037  63.5872229
  69.4070127  14.0743137  64.0327001  68.8181154  14.3033410  62.8157694
  69.0097957  14.5364508  63.5391396  66.4348134  13.2770049  70.7891054
  67.0797137  12.7842492  70.4702003  66.6749911  13.4194835  71.6157132
  66.5658720  13.2247491  70.8640587  68.9734226  16.1224955  70.4397947
  69.2557469  15.3276360  70.2184703  69.7020386  16.6005542  70.4603008
  69.1223789  16.0759551  70.4100962  72.5685828  13.0353218  60.5402998
  72.4837123  13.8914185  60.6852567  73.0570211  12.7597542  61.2085157
  72.6274725  13.1210540  60.6605079  73.5004261   9.6538012  62.0400733
  72.9715733   9.8697646  62.6998039  74.0229281  10.3474151  61.9601702
  73.4992714   9.7881149  62.1256332  65.3903869  13.5501229  60.8408201
  64.8061084  14.0551260  61.2474065  64.9873964  13.3243616  60.1004793
  65.2443173  13.5909477  60.7913226  60.9447898  19.2655990  67.6431873
  60.4615476  19.9906480  67.6191456  61.7571216  19.5632120  67.7542030
  60.9938645  19.4158344  67.6559152  67.0162052  18.0588171  70.2481687
  66.4988993  17.6995586  69.6442995  67.7136443  17.5350345  70.2587753
  67.0427633  17.9285859  70.1611946  69.8481083   9.7966881  59.3177122
  70.0877087  10.0044865  58.5052465  70.1696924   8.9924390  59.4266066
  69.9318241   9.7080982  59.2137675  63.7992095  19.7812166  67.7952152
  64.5012674  19.2664155  67.8524909  63.7189578  20.1086317  68.5999027
  63.8915855  19.7526392  67.9224945  63.1242870  15.9718518  67.3037760
  63.9631770  16.2041451  67.3511522  63.1554639  15.1022830  67.2344796
  63.2524588  15.8775465  67.3002405  63.7495573  16.3919393  71.6051066
  64.2893798  16.2490524  72.2754438  63.0665520  16.7916144  71.9735092
  63.7287727  16.4299064  71.7585488  59.1532718  12.6119684  71.7585487
  58.8871134  11.7958801  71.9176478  59.1671283  12.6572840  70.8881003
  59.1157441  12.4976589  71.6538969  63.0590465   7.4104769  58.3737246
  62.3448642   7.1242948  58.7859678  63.5434434   7.7501394  59.0143633
  63.0249829   7.4186418  58.5292880  70.2337783  15.9134722  58.7499054
  70.6488932  15.5819746  58.0583549  69.4029713  15.6803625  58.6219190
  70.1725792  15.8305978  58.6289901  59.5626132  13.3978464  69.0397232
  59.3801705  13.3725350  68.1869524  60.2975801  13.8677401  69.0786140
  59.6440196  13.4639826  68.9195150  72.6748152  10.3196542  64.7023303
  72.7695006  11.0585836  65.1562929  72.0506996   9.8914018  65.1357868
  72.5957182  10.3657863  64.8331451  59.5297042  10.2771964  69.1896298
  60.1070545  10.1408415  69.8288544  58.8311104   9.8207748  69.4441883
  59.5118064  10.1894230  69.3218588  72.9271173  12.1645282  57.9360255
  72.8451336  12.2347469  58.8015242  73.5650894  12.7275026  57.7443996
  73.0091011  12.2584253  58.0350205  66.2864345  11.9306020  67.4034782
  66.0283589  11.0977755  67.3766081  66.3412827  12.1563633  66.5627282
  66.2564122  11.8403791  67.2754918  65.2599057   9.4843782  67.8899676
  64.6848648   9.6435951  68.5263637  64.8834733   8.8479191  67.4268127
  65.1201869   9.4141595  67.9154235  55.0055876   9.1283857  65.9044117
  55.0916127   8.7515725  66.6857647  55.6331673   8.7544303  65.4264075
  55.1112427   9.0169339  65.9489594  70.0311284  12.1865736  60.9468862
  70.8451922  12.4780629  60.8351633  69.9670425  11.5325599  60.3727155
  70.1414023  12.1330931  60.8457699  65.9019192  15.6587254  66.0741174
  66.5393139  15.4199001  66.6192967  66.3274263  15.8624413  65.3394334
  66.0595358  15.6538264  66.0458331  60.5931834  17.8975590  69.9575478
  60.6335980  18.1690441  69.1295257  61.1526358  18.4217498  70.3733265
  60.6815180  18.0151345  69.8967366  66.5422007  10.8789543  60.4116063
  66.9267160  10.6597250  61.1632608  66.2933627  11.7052489  60.5417139
  66.5624079  10.9687690  60.5417140  68.2840664  16.1359676  67.7534960
  68.3579672  15.9734848  68.6076810  69.1010170  16.3249866  67.5095442
  68.4157022  16.1396419  67.8432986  62.0446421  16.4817539  64.7829404
  61.2184538  16.7279276  64.6563682  62.1058412  16.4029620  65.6491462
  61.9320587  16.5062488  64.8918348  66.8245250  19.0994419  62.4848433
  67.1143548  18.7083401  61.7607660  67.5548730  19.2811124  62.9253709
  66.9752134  19.0688233  62.4431240  64.7651165  21.0761802  65.5508583
  64.5451461  20.7859156  66.3435250  64.5445687  20.4176757  65.0226495
  64.6998759  20.9361510  65.5897492  63.6768112  13.1635118  67.8164285
  63.3881361  12.5372590  68.3510012  64.5451460  13.1055406  67.8828965
  63.7628364  13.0622662  67.9055239  66.9319121  22.4491192  64.3339276
  67.5843179  21.9167634  64.5630302  66.2344730  22.0959844  64.7207150
  66.9249839  22.3180715  64.4251443  63.8800386  14.8030369  63.7406650
  64.6346354  15.1843408  63.9542112  63.2870998  15.2541513  64.1953346
  63.9037099  14.9259197  63.8389528  74.9259039  14.7695606  63.6770255
  75.4917072  15.4288816  63.5928798  74.2786943  15.1145304  64.1486657
  74.9137796  14.9177547  63.7343011  65.1998612  15.9738931  69.1146765
  64.6779366  16.1139222  69.7998630  65.5872633  15.2149595  69.3048883
  65.1802313  15.8824454  69.2447842  62.1889796   6.0244739  63.1841720
  61.9014592   5.6546010  62.4473667  62.8760265   6.4939595  62.9225425
  62.2478694   6.0391709  63.0356796  71.3965617  17.7134390  63.1007334
  71.1552293  16.9802251  62.6934399  71.5766950  18.2621247  62.4473667
  71.3873241  17.6856781  62.9437557  66.6264938  13.0042950  64.5128256
  66.4307721  13.6117684  63.9188559  66.8499283  12.3110894  64.0319930
  66.6299579  12.9920475  64.3544337  65.0243468   9.8897688  64.6309125
  65.7466120  10.0538846  64.1712931  64.5451461  10.6107352  64.5248464
  65.0607199  10.0195917  64.5474739  62.6751085  12.2955760  73.7363264
  63.1872182  12.5740013  73.0872024  62.3887427  13.0345054  74.1026078
  62.7085948  12.4458114  73.6953143  59.7617991   6.8025952  64.0327001
  59.8634127   7.6052113  64.3607976  60.5573878   6.6013288  63.7350082
  59.8945897   6.8911851  64.0362356  60.5781723   6.9173130  71.7748123
  60.4367215   6.0657071  71.8992631  60.8622286   6.9601791  70.9510329
  60.5989569   6.7972880  71.6715747  65.7645098  19.6799711  72.1976621
  65.9134661  19.1202627  71.5450025  66.5445100  19.7591712  72.5809140
  65.9019191  19.6085276  72.1573570  76.1221737  14.8201833  60.4695891
  75.7428546  14.0338971  60.4625181  75.4587982  15.3688690  60.3267536
  75.9680212  14.7846657  60.4476688  68.2898398  19.8514354  73.4761112
  68.2142069  19.1823164  74.0311900  68.2188257  20.5532142  73.9901778
  68.2679005  19.8559261  73.6337960  68.9468645  18.3715352  64.3084718
  69.7118536  18.1024996  63.9867382  68.8446735  17.8865363  65.0254780
  69.0450141  18.2604917  64.3664545  71.4687306  15.4027536  56.2884667
  72.2360291  15.4627661  55.8790519  71.0218615  14.8307978  55.8040985
  71.5160733  15.3264112  56.1562377  74.3681836  17.0647324  60.8047577
  74.4501673  17.8714311  60.4809028  74.8531578  17.0843284  61.5288351
  74.4518994  17.1867987  60.8634476  68.1778339  11.7432160  69.4717655
  67.7540588  11.9436659  68.7356673  68.0023194  10.8961008  69.5841955
  68.0889220  11.6480942  69.3791345  67.6790033  23.2582673  71.9339112
  68.1685963  22.5593463  71.7514777  67.1074265  22.9606543  72.5215170
  67.6674563  23.1108897  71.9940153  63.4660784  12.2384212  64.9045628
  63.6225403  12.1731015  65.7601620  63.8061377  13.0132764  64.6924307
  63.5394019  12.3433410  65.0000222  70.0039929  11.6142095  63.7738991
  70.5455474  11.1112476  64.2377611  70.3186488  11.5607290  62.9628476
  70.1304326  11.5321516  63.7222803  68.1726378  17.0059447  61.0579019
  68.2419199  16.1473985  61.1972019  68.9514834  17.2231328  60.7298043
  68.2979229  16.9112311  61.0296176  72.5633866  19.4297148  65.2715512
  72.1713658  19.1263863  64.5538378  72.7186938  20.2666238  65.0820466
  72.5287456  19.5080985  65.1372009  60.0395046   9.4219162  65.2206395
  60.4194010   9.8403707  64.5566662  59.4650410  10.0032618  65.5275238
  60.0106370   9.5697021  65.1683136  72.7273541  15.9947137  65.2121543
  72.3688196  16.1661780  65.9885575  72.2412252  16.4560343  64.6549541
  72.6032238  16.0886108  65.2446812  67.5161906  11.6746302  57.7521777
  67.8054431  12.4511185  58.0265351  67.6033705  11.1635034  58.4536276
  67.5716162  11.7138221  57.8964275  63.6825847  10.9879567  69.8521889
  62.8413854  10.8883441  70.0600783  63.8915855  11.7575047  70.2036210
  63.5890540  11.0871610  69.9349204  61.1601414   8.6099104  67.6806640
  60.7658112   8.6842116  66.9056749  60.6041531   8.9957050  68.2315002
  61.0204226   8.6780879  67.6474300  65.5560863  16.1310687  73.8091584
  65.4481218  16.1412749  74.6753643  65.7656645  16.9565467  73.6196538
  65.5710974  16.2551762  73.9095676  63.5734655  13.3823329  71.2713522
  62.9822588  14.0232827  71.2416537  64.3355679  13.8060947  71.2444822
  63.5982916  13.5399168  71.2628669  73.3324171  18.8332641  68.7045547
  73.1343860  19.3223455  68.0101758  72.7111882  19.0373882  69.2829680
  73.2111736  18.9349179  68.6868770  67.3932150  10.6017538  63.0455791
  68.1374195  10.9891814  63.2838741  67.5392846   9.7574963  63.2096279
  67.5242735  10.5348011  63.1049761  60.8310517  15.0557427  72.4147438
  60.3010442  14.3649866  72.4642413  61.1035610  15.0467612  71.5860147
  60.7935239  14.9524559  72.2994854  71.8630608  15.6383129  61.1385121
  72.5864807  16.1041242  60.9949694  71.4231199  15.7056739  60.3882718
  71.9046300  15.7166966  61.0069902  56.1106359  11.7285191  69.7715787
  56.0049808  11.6832035  68.9067871  55.3606579  12.0738972  70.0530072
  55.9841962  11.7726099  69.6853116  64.6750499   7.9640616  62.5442404
  64.8153460   8.4613080  63.2471045  65.1733032   7.2626910  62.6856617
  64.7691580   7.9342594  62.6693983  64.7050721   8.8307727  59.8734980
  65.3395801   9.4268152  59.8084442  64.7876332   8.5311184  60.6880851
  64.8107272   8.8748635  59.9838067  61.2103709  11.0275567  63.1424526
  61.7195939  11.6240075  63.5235832  61.6837982  10.7601541  62.4600946
  61.3547085  11.0761383  63.0979049  72.1234457  19.7003834  61.2983182
  71.4063767  19.5264696  60.8330419  72.7741195  19.4656406  60.7658668
  72.1136308  19.6399627  61.1512400  68.7569162  20.7165135  70.2736245
  68.5334817  19.9583964  70.6420272  68.2679006  20.7463156  69.5516685
  68.6512611  20.6087359  70.2212986  63.5694241   7.6631826  66.0097707
  62.8506230   8.0795959  66.2770570  63.9406603   8.2286065  65.4589345
  63.5186173   7.8081107  65.9680514  67.4047619  20.9365593  67.7273330
  66.9908018  20.2739723  67.3377172  68.0894993  21.0843452  67.2069024
  67.4445991  20.8606251  67.5929827  70.7712913  20.0955678  68.4796947
  70.3729197  20.2057948  67.7117767  70.1564133  20.3037744  69.0623506
  70.6211803  20.1429246  68.4528246  78.5054756  14.6707645  61.8640037
  78.8888362  15.4199001  62.0938134  77.7098869  14.9173464  61.6052026
  78.4448538  14.8177339  61.8597611  58.2485640   9.8628244  72.2888788
  57.7012359   9.1928890  72.4069657  59.0378018   9.4958092  72.3532256
  58.2837823   9.7093231  72.3157489  67.3170048   7.3427076  59.4400416
  67.6969012   7.3606706  58.6551531  66.5762644   7.7881065  59.3191264
  67.2638885   7.4108851  59.3063984  57.0072609   9.0749052  69.4434811
  56.8294370   8.6225661  70.1689727  56.7191631   9.8775213  69.6273289
  56.9385562   9.1271610  69.5778314  68.1154802  14.1804583  60.8309206
  67.3066124  13.8571256  60.7842516  68.6229711  13.4737805  60.7637455
  68.0704468  14.0285899  60.8139501  58.7445079  11.6076776  66.5556571
  57.8790598  11.5962466  66.4439342  58.8443895  11.4206999  67.4027710
  58.6319246  11.5782837  66.6645515  64.3702089  21.3774674  70.1286676
  64.6848648  22.1911063  70.1364458  64.7795502  20.9924893  70.7968835
  64.4770187  21.4403377  70.2290768  71.3226609  16.7944721  67.6990488
  71.7937787  17.5084984  67.8680473  71.6586787  16.1943471  68.2350357
  71.4421724  16.8116185  67.8022864  61.7115109  15.3247783  69.7765284
  62.3159966  15.2843617  69.1479105  61.5042422  16.1718935  69.8069340
  61.7704006  15.4435785  69.6881401  56.9466391  14.3082400  69.6464208
  56.8490669  13.4978672  69.9554264  57.7295261  14.2874194  69.2610476
  57.0482528  14.1849491  69.6351071  75.5813356  33.8716949  64.4760560
  74.8296256  33.4932487  64.2476605  76.0299368  33.9035382  63.7279370
  75.5363023  33.8202556  64.3318062  81.0338316  34.2942318  59.9046107
  80.6989684  34.9719240  59.4690329  81.5465186  33.9047629  59.3162979
  81.0603897  34.3366896  59.7532899  80.5742607  36.2456587  65.8457219
  80.9581987  36.8143485  65.3061994  80.5101748  35.5206097  65.3663035
  80.6216034  36.2232050  65.6951081  77.1598112  33.8835341  66.7423333
  77.2608475  33.0735695  67.0520460  76.5639858  33.7892287  66.1123011
  77.0870651  33.7500369  66.6949571  76.9998852  38.8012930  68.1438189
  77.6436307  39.2426094  68.5334347  77.3255107  37.9966356  68.0568447
  77.1430681  38.7478125  68.1883666  70.3563157  29.9055627  66.3675666
  70.1213341  29.0723280  66.2607935  70.4948797  30.1860293  65.5536867
  70.3418819  29.8239131  66.2318021  72.6553244  22.0741358  69.2659974
  72.0358276  21.4834005  69.0969989  72.5537108  22.6652793  68.6324297
  72.5490919  22.0745440  69.1464964  77.7019432  31.8124905  63.5158050
  78.0235273  32.3530112  62.9119359  78.3491528  31.2421676  63.6480340
  77.8445487  31.8084080  63.4465086  79.7521140  23.8140900  63.5992437
  80.4501304  23.9929027  64.0913900  80.0673472  23.2911239  62.9762827
  79.9016477  23.7634672  63.5794447  72.3822377  25.6193640  71.5103543
  72.2581074  26.2056085  72.1453362  73.0340662  25.1253835  71.8115818
  72.4596026  25.6332444  71.6489472  79.9409075  30.2011345  63.5872229
  80.3802710  29.5928445  64.0327001  79.7913738  29.8218718  62.8157694
  79.9830541  30.0549816  63.5391396  77.4080718  28.7955357  70.7891054
  78.0529721  28.3027800  70.4702003  77.6482495  28.9380143  71.6157132
  77.5391303  28.7432799  70.8640587  79.9466809  31.6410262  70.4397947
  80.2290052  30.8461668  70.2184703  80.6752970  32.1190850  70.4603008
  80.0956373  31.5944859  70.4100962  76.3636453  29.0686537  60.8408201
  75.7793668  29.5736568  61.2474065  75.9606548  28.8428924  60.1004793
  76.2175756  29.1094785  60.7913226  71.9180481  34.7841298  67.6431873
  71.4348059  35.5091788  67.6191456  72.7303799  35.0817428  67.7542030
  71.9671229  34.9343652  67.6559152  77.9894635  33.5773479  70.2481687
  77.4721577  33.2180894  69.6442995  78.6869027  33.0535653  70.2587753
  78.0160216  33.4471167  70.1611946  80.8213667  25.3152189  59.3177122
  81.0609671  25.5230173  58.5052465  81.1429508  24.5109698  59.4266066
  80.9050825  25.2266290  59.2137675  76.1303957  17.2445585  63.1636660
  76.8849925  17.6123902  62.9253710  75.9531492  17.6185139  63.9315839
  76.2158436  17.3543773  63.2421548  74.7724678  35.2997474  67.7952152
  75.4745258  34.7849463  67.8524909  74.6922162  35.6271625  68.5999027
  74.8648439  35.2711700  67.9224945  74.4861022  19.6515904  59.8614773
  74.3036595  19.8687785  59.0355765  75.3486635  19.7654917  59.9173387
  74.5865611  19.7005802  59.7469260  74.0975454  31.4903826  67.3037760
  74.9364353  31.7226759  67.3511522  74.1287223  30.6208137  67.2344796
  74.2257171  31.3960772  67.3002405  74.7228157  31.9104701  71.6051066
  75.2626382  31.7675832  72.2754438  74.0398103  32.3101452  71.9735092
  74.7020311  31.9484372  71.7585488  80.1660741  16.6542315  62.8963796
  80.8946902  16.4758269  62.4501953  80.2555634  17.4960394  63.1070974
  80.2867403  16.7526193  62.8617314  70.1265302  28.1304992  71.7585487
  69.8603717  27.3144109  71.9176478  70.1403866  28.1758148  70.8881003
  70.0890024  28.0161897  71.6538969  74.0323049  22.9290076  58.3737246
  73.3181226  22.6428256  58.7859678  74.5167018  23.2686702  59.0143633
  73.9982412  22.9371726  58.5292880  81.2070367  31.4320030  58.7499054
  81.6221515  31.1005054  58.0583549  80.3762296  31.1988933  58.6219190
  81.1458376  31.3491286  58.6289901  70.5358716  28.9163771  69.0397232
  70.3534289  28.8910657  68.1869524  71.2708385  29.3862709  69.0786140
  70.6172780  28.9825134  68.9195150  70.5029626  25.7957272  69.1896298
  71.0803129  25.6593723  69.8288544  69.8043688  25.3393056  69.4441883
  70.4850647  25.7079538  69.3218588  77.2596928  27.4491328  67.4034782
  77.0016172  26.6163063  67.3766081  77.3145411  27.6748941  66.5627282
  77.2296706  27.3589099  67.2754918  76.2331640  25.0029090  67.8899676
  75.6581232  25.1621259  68.5263637  75.8567317  24.3664499  67.4268127
  76.0934453  24.9326903  67.9154235  65.9788459  24.6469165  65.9044117
  66.0648711  24.2701033  66.6857647  66.6064257  24.2729611  65.4264075
  66.0845010  24.5354647  65.9489594  81.0043867  27.7051044  60.9468862
  81.8184506  27.9965937  60.8351633  80.9403008  27.0510906  60.3727155
  81.1146606  27.6516239  60.8457699  76.8751775  31.1772562  66.0741174
  77.5125722  30.9384309  66.6192967  77.3006847  31.3809720  65.3394334
  77.0327942  31.1723572  66.0458331  71.5664418  33.4160898  69.9575478
  71.6068563  33.6875749  69.1295257  72.1258942  33.9402806  70.3733265
  71.6547764  33.5336653  69.8967366  77.5154590  26.3974851  60.4116063
  77.8999743  26.1782558  61.1632608  77.2666211  27.2237797  60.5417139
  77.5356663  26.4872998  60.5417140  79.2573247  31.6544984  67.7534960
  79.3312256  31.4920156  68.6076810  80.0742754  31.8435174  67.5095442
  79.3889606  31.6581727  67.8432986  73.0179004  32.0002847  64.7829404
  72.1917122  32.2464584  64.6563682  73.0790995  31.9214928  65.6491462
  72.9053171  32.0247796  64.8918348  75.2355028  18.0671788  65.7424844
  74.3677453  18.1394388  65.8082453  75.5230232  18.8693867  65.9312819
  75.1494776  18.1965935  65.7799610  77.7977833  34.6179727  62.4848433
  78.0876132  34.2268709  61.7607660  78.5281314  34.7996432  62.9253709
  77.9484717  34.5873541  62.4431240  75.7383749  36.5947110  65.5508583
  75.5184044  36.3044464  66.3435250  75.5178271  35.9362065  65.0226495
  75.6731343  36.4546818  65.5897492  74.6500696  28.6820426  67.8164285
  74.3613945  28.0557897  68.3510012  75.5184044  28.6240714  67.8828965
  74.7360948  28.5807970  67.9055239  77.9051704  37.9676500  64.3339276
  78.5575762  37.4352942  64.5630302  77.2077313  37.6145152  64.7207150
  77.8982422  37.8366023  64.4251443  74.8532969  30.3215677  63.7406650
  75.6078937  30.7028716  63.9542112  74.2603582  30.7726821  64.1953346
  74.8769683  30.4444505  63.8389528  76.1731196  31.4924239  69.1146765
  75.6511949  31.6324530  69.7998630  76.5605216  30.7334903  69.3048883
  76.1534897  31.4009762  69.2447842  73.1622380  21.5430047  63.1841720
  72.8747176  21.1731318  62.4473667  73.8492848  22.0124903  62.9225425
  73.2211277  21.5577017  63.0356796  82.3698201  33.2319698  63.1007334
  82.1284877  32.4987559  62.6934399  82.5499534  33.7806555  62.4473667
  82.3605825  33.2042089  62.9437557  77.5997521  28.5228258  64.5128256
  77.4040304  29.1302992  63.9188559  77.8231867  27.8296202  64.0319930
  77.6032163  28.5105783  64.3544337  75.9976052  25.4082996  64.6309125
  76.7198703  25.5724154  64.1712931  75.5184044  26.1292660  64.5248464
  76.0339782  25.5381225  64.5474739  73.6483668  27.8141068  73.7363264
  74.1604765  28.0925321  73.0872024  73.3620011  28.5530362  74.1026078
  73.6818531  27.9643422  73.6953143  70.7350575  22.3211260  64.0327001
  70.8366711  23.1237421  64.3607976  71.5306461  22.1198596  63.7350082
  70.8678480  22.4097159  64.0362356  71.5514307  22.4358438  71.7748123
  71.4099798  21.5842379  71.8992631  71.8354870  22.4787099  70.9510329
  71.5722153  22.3158188  71.6715747  81.7052899  24.2725528  65.9192611
  81.4587613  24.1921279  66.7529400  82.0338022  23.4878996  65.7255138
  81.7174143  24.1451794  66.0140134  76.7377681  35.1985019  72.1976621
  76.8867245  34.6387934  71.5450025  77.5177683  35.2777020  72.5809140
  76.8751775  35.1270584  72.1573570  79.2630982  35.3699662  73.4761112
  79.1874653  34.7008472  74.0311900  79.1920841  36.0717450  73.9901778
  79.2411589  35.3744569  73.6337960  79.9201229  33.8900660  64.3084718
  80.6851120  33.6210304  63.9867382  79.8179319  33.4050671  65.0254780
  80.0182724  33.7790225  64.3664545  79.1510923  27.2617468  69.4717655
  78.7273172  27.4621967  68.7356673  78.9755778  26.4146316  69.5841955
  79.0621803  27.1666250  69.3791345  78.6522616  38.7767981  71.9339112
  79.1418546  38.0778770  71.7514777  78.0806848  38.4791851  72.5215170
  78.6407146  38.6294205  71.9940153  74.4393368  27.7569520  64.9045628
  74.5957987  27.6916323  65.7601620  74.7793961  28.5318072  64.6924307
  74.5126603  27.8618718  65.0000222  80.9772512  27.1327403  63.7738991
  81.5188058  26.6297784  64.2377611  81.2919071  27.0792598  62.9628476
  81.1036909  27.0506824  63.7222803  79.1458962  32.5244755  61.0579019
  79.2151782  31.6659293  61.1972019  79.9247417  32.7416636  60.7298043
  79.2711812  32.4297619  61.0296176  71.0127629  24.9404470  65.2206395
  71.3926594  25.3589015  64.5566662  70.4382994  25.5217926  65.5275238
  70.9838954  25.0882329  65.1683136  78.4894490  27.1931610  57.7521777
  78.7787015  27.9696493  58.0265351  78.5766289  26.6820342  58.4536276
  78.5448746  27.2323529  57.8964275  74.6558431  26.5064875  69.8521889
  73.8146437  26.4068749  70.0600783  74.8648439  27.2760355  70.2036210
  74.5623123  26.6056918  69.9349204  72.1333998  24.1284412  67.6806640
  71.7390695  24.2027424  66.9056749  71.5774115  24.5142358  68.2315002
  71.9936810  24.1966186  67.6474300  77.5241193  21.7446794  63.6664189
  77.8000927  21.0265706  63.2541756  78.1239862  22.3431714  63.4585295
  77.6534457  21.7267165  63.5744950  76.5293447  31.6495995  73.8091584
  76.4213802  31.6598057  74.6753643  76.7389228  32.4750775  73.6196538
  76.5443558  31.7737070  73.9095676  81.0251713  19.4160311  61.9410784
  81.4795460  19.5870872  62.6658628  81.4991759  18.8028422  61.5408559
  81.1620033  19.3511197  61.9884545  74.5467239  28.9008637  71.2713522
  73.9555172  29.5418135  71.2416537  75.3088262  29.3246254  71.2444822
  74.5715499  29.0584476  71.2628669  78.3664733  26.1202846  63.0455791
  79.1106778  26.5077122  63.2838741  78.5125429  25.2760271  63.2096279
  78.4975318  26.0533318  63.1049761  75.2759174  20.8567393  57.0316359
  74.9271978  21.5087118  57.4947908  74.7955620  20.8424506  56.3040230
  75.1529418  20.9510447  56.9927450  71.8043101  30.5742735  72.4147438
  71.2743025  29.8835174  72.4642413  72.0768194  30.5652920  71.5860147
  71.7667823  30.4709867  72.2994854  67.0838943  27.2470499  69.7715787
  66.9782392  27.2017343  68.9067871  66.3339163  27.5924279  70.0530072
  66.9574546  27.2911407  69.6853116  75.6483083  23.4825924  62.5442404
  75.7886044  23.9798388  63.2471045  76.1465615  22.7812218  62.6856617
  75.7424163  23.4527902  62.6693983  75.6783305  24.3493035  59.8734980
  76.3128384  24.9453460  59.8084442  75.7608916  24.0496492  60.6880851
  75.7839856  24.3933943  59.9838067  77.2562288  20.2807010  59.8480422
  77.5778129  19.8010092  59.1939685  77.5189232  21.0906656  59.6571234
  77.3428313  20.3296908  59.7235915  72.1836293  26.5460875  63.1424526
  72.6928522  27.1425383  63.5235832  72.6570565  26.2786849  62.4600946
  72.3279669  26.5946691  63.0979049  79.7301746  36.2350443  70.2736245
  79.5067400  35.4769272  70.6420272  79.2411589  36.2648464  69.5516685
  79.6245195  36.1272667  70.2212986  74.5426825  23.1817134  66.0097707
  73.8238814  23.5981266  66.2770570  74.9139187  23.7471373  65.4589345
  74.4918756  23.3266415  65.9680514  78.3780203  36.4550901  67.7273330
  77.9640601  35.7925031  67.3377172  79.0627577  36.6028759  67.2069024
  78.4178575  36.3791559  67.5929827  81.7445497  35.6140986  68.4796947
  81.3461780  35.7243256  67.7117767  81.1296717  35.8223052  69.0623506
  81.5944386  35.6614554  68.4528246  80.3173399  22.2215134  61.3471086
  79.7238238  22.5432130  60.7955653  80.3548677  21.3756229  61.1392192
  80.2347788  22.1439462  61.2353858  76.2475978  20.7171185  66.0727032
  76.7233344  21.0788264  65.4377213  75.7464578  21.3727652  66.3527175
  76.2441337  20.8665373  66.0203773  69.2218223  25.3813552  72.2888788
  68.6744943  24.7114198  72.4069657  70.0110601  25.0143400  72.3532256
  69.2570407  25.2278539  72.3157489  78.2902631  22.8612384  59.4400416
  78.6701596  22.8792014  58.6551531  77.5495227  23.3066373  59.3191264
  78.2371469  22.9294159  59.3063984  67.9805193  24.5934360  69.4434811
  67.8026954  24.1410969  70.1689727  67.6924215  25.3960521  69.6273289
  67.9118146  24.6456918  69.5778314  79.0887385  29.6989891  60.8309206
  78.2798708  29.3756564  60.7842516  79.5962294  28.9923113  60.7637455
  79.0437052  29.5471207  60.8139501  69.7177663  27.1262084  66.5556571
  68.8523182  27.1147774  66.4439342  69.8176478  26.9392307  67.4027710
  69.6051830  27.0968145  66.6645515  75.3434672  36.8959982  70.1286676
  75.6581231  37.7096371  70.1364458  75.7528086  36.5110201  70.7968835
  75.4502770  36.9588685  70.2290768  82.2959192  32.3130029  67.6990488
  82.7670370  33.0270292  67.8680473  82.6319371  31.7128779  68.2350357
  82.4154307  32.3301493  67.8022864  78.2821802  19.0873913  62.1228048
  79.1037496  19.2572225  61.8809743  77.8191453  19.2421174  61.3994345
  78.3352964  19.1355646  61.9799692  72.6847693  30.8433091  69.7765284
  73.2892550  30.8028925  69.1479105  72.4775005  31.6904243  69.8069340
  72.7436590  30.9621093  69.6881401  67.9198975  29.8267708  69.6464208
  67.8223253  29.0163980  69.9554264  68.7027845  29.8059502  69.2610476
  68.0215111  29.7034799  69.6351071  81.3295740  45.4240935  66.3675666
  81.0945925  44.5908588  66.2607935  81.4681381  45.7045601  65.5536867
  81.3151403  45.3424439  66.2318021  81.0997886  43.6490300  71.7585487
  80.8336301  42.8329417  71.9176478  81.1136450  43.6943456  70.8881003
  81.0622608  43.5347205  71.6538969  81.5091299  44.4349079  69.0397232
  81.3266872  44.4095965  68.1869524  82.2440968  44.9048017  69.0786140
  81.5905363  44.5010442  68.9195150  81.4762210  41.3142580  69.1896298
  82.0535712  41.1779031  69.8288544  80.7776271  40.8578364  69.4441883
  81.4583231  41.2264846  69.3218588  76.9521043  40.1654473  65.9044117
  77.0381295  39.7886341  66.6857647  77.5796840  39.7914919  65.4264075
  77.0577594  40.0539955  65.9489594  81.7083158  37.8396568  64.0327001
  81.8099295  38.6422729  64.3607976  82.5039045  37.6383904  63.7350082
  81.8411064  37.9282467  64.0362356  82.5246890  37.9543746  71.7748123
  82.3832382  37.1027687  71.8992631  82.8087454  37.9972407  70.9510329
  82.5454736  37.8343496  71.6715747  81.9860213  40.4589778  65.2206395
  82.3659178  40.8774323  64.5566662  81.4115578  41.0403234  65.5275238
  81.9571538  40.6067637  65.1683136  78.0571527  42.7655807  69.7715787
  77.9514976  42.7202651  68.9067871  77.3071747  43.1109587  70.0530072
  77.9307129  42.8096715  69.6853116  80.1950807  40.8998860  72.2888788
  79.6477526  40.2299506  72.4069657  80.9843185  40.5328708  72.3532256
  80.2302990  40.7463847  72.3157489  78.9537776  40.1119668  69.4434811
  78.7759537  39.6596277  70.1689727  78.6656798  40.9145829  69.6273289
  78.8850729  40.1642226  69.5778314  80.6910246  42.6447392  66.5556571
  79.8255766  42.6333082  66.4439342  80.7909062  42.4577615  67.4027710
  80.5784413  42.6153453  66.6645515  78.8931558  45.3453016  69.6464208
  78.7955836  44.5349288  69.9554264  79.6760428  45.3244810  69.2610476
  78.9947695  45.2220106  69.6351071  75.2764180  10.8095080  51.4100607
  74.5247080  10.4310618  51.1816652  75.7250192  10.8413513  50.6619417
  75.2313847  10.7580687  51.2658109  80.2693431  13.1834718  52.7797266
  80.6532811  13.7521617  52.2402041  80.2052572  12.4584228  52.3003082
  80.3166858  13.1610181  52.6291128  76.6949676  15.7391061  55.0778236
  77.3387131  16.1804225  55.4674394  77.0205931  14.9344487  54.9908494
  76.8381504  15.6856256  55.1223713  71.6131305  11.7219429  54.5771919
  71.1298883  12.4469919  54.5531503  72.4254623  12.0195559  54.6882077
  71.6622053  11.8721783  54.5899199  74.4675502  12.2375605  54.7292199
  75.1696082  11.7227594  54.7864956  74.3872985  12.5649757  55.5339074
  74.5599263  12.2089831  54.8564991  71.2615242  10.3539029  56.8915524
  71.3019387  10.6253880  56.0635304  71.8209766  10.8780937  57.3073312
  71.3498588  10.4714784  56.8307413  72.7129828   8.9380978  51.7169450
  71.8867946   9.1842715  51.5903729  72.7741819   8.8593059  52.5831508
  72.6003995   8.9625927  51.8258395  77.4928657  11.5557858  49.4188480
  77.7826955  11.1646840  48.6947707  78.2232138  11.7374563  49.8593756
  77.6435541  11.5251672  49.3771287  75.4334573  13.5325241  52.4848630
  75.2134868  13.2422596  53.2775297  75.2129095  12.8740196  51.9566542
  75.3682167  13.3924949  52.5237539  77.6002528  14.9054631  51.2679322
  78.2526586  14.3731073  51.4970348  76.9028137  14.5523283  51.6547196
  77.5933246  14.7744154  51.3591490  76.4328505  12.1363150  59.1316668
  76.5818069  11.5766066  58.4790072  77.2128507  12.2155151  59.5149186
  76.5702599  12.0648715  59.0913617  78.9581806  12.3077793  60.4101158
  78.8825477  11.6386603  60.9651947  78.8871665  13.0095581  60.9241825
  78.9362413  12.3122700  60.5678006  78.3473440  15.7146112  58.8679159
  78.8369370  15.0156902  58.6854824  77.7757672  15.4169982  59.4555217
  78.3357970  15.5672336  58.9280200  79.4252570  13.1728574  57.2076292
  79.2018224  12.4147403  57.5760319  78.9362413  13.2026595  56.4856732
  79.3196019  13.0650798  57.1553033  78.0731027  13.3929032  54.6613377
  77.6591425  12.7303162  54.2717219  78.7578401  13.5406891  54.1409071
  78.1129398  13.3169690  54.5269874  81.4396321  12.5519117  55.4136993
  81.0412604  12.6621387  54.6457814  80.8247540  12.7601183  55.9963553
  81.2895210  12.5992685  55.3868293  75.0385496  13.8338114  57.0626723
  75.3532055  14.6474502  57.0704505  75.4478910  13.4488332  57.7308882
  75.1453594  13.8966816  57.1630815  81.0246564  22.3619066  53.3015713
  80.7896748  21.5286719  53.1947982  81.1632205  22.6423732  52.4876914
  81.0102226  22.2802570  53.1658068  80.7948709  20.5868431  58.6925534
  80.5287125  19.7707548  58.8516525  80.8087274  20.6321587  57.8221050
  80.7573432  20.4725336  58.5879016  81.2042123  21.3727211  55.9737279
  81.0217696  21.3474097  55.1209571  81.9391792  21.8426148  56.0126187
  81.2856187  21.4388573  55.8535197  81.1713033  18.2520711  56.1236345
  81.7486536  18.1157162  56.7628590  80.4727095  17.7956495  56.3781929
  81.1534055  18.1642977  56.2558635  76.6471867  17.1032604  52.8384164
  76.7332119  16.7264472  53.6197694  77.2747664  16.7293050  52.3604122
  76.7528418  16.9918086  52.8829641  82.2347825  25.8724337  56.8915524
  82.2751971  26.1439188  56.0635304  82.7942349  26.3966245  57.3073312
  82.3231171  25.9900092  56.8307413  81.4033982  14.7774699  50.9667048
  81.5050118  15.5800860  51.2948023  82.1989869  14.5762035  50.6690128
  81.5361888  14.8660598  50.9702403  82.2197714  14.8921877  58.7088169
  82.0783206  14.0405818  58.8332677  82.5038278  14.9350538  57.8850375
  82.2405560  14.7721627  58.6055793  81.6811037  17.3967909  52.1546442
  82.0610002  17.8152454  51.4906709  81.1066402  17.9781365  52.4615285
  81.6522362  17.5445768  52.1023183  82.8017405  16.5847851  54.6146687
  82.4074103  16.6590863  53.8396796  82.2457522  16.9705797  55.1655048
  82.6620218  16.6529626  54.5814346  82.4726508  23.0306174  59.3487485
  81.9426433  22.3398613  59.3982460  82.7451602  23.0216359  58.5200194
  82.4351231  22.9273306  59.2334901  77.7522350  19.7033938  56.7055833
  77.6465800  19.6580782  55.8407918  77.0022570  20.0487719  56.9870118
  77.6257953  19.7474846  56.6193163  79.8901631  17.8376991  59.2228835
  79.3428350  17.1677637  59.3409704  80.6794009  17.4706839  59.2872303
  79.9253814  17.6841978  59.2497536  78.6488600  17.0497799  56.3774858
  78.4710361  16.5974408  57.1029774  78.3607622  17.8523961  56.5613336
  78.5801553  17.1020357  56.5118361  80.3861070  19.5825523  53.4896617
  79.5206590  19.5711213  53.3779389  80.4859886  19.3955746  54.3367757
  80.2735237  19.5531584  53.5985562  78.5882382  22.2831147  56.5804254
  78.4906660  21.4727419  56.8894311  79.3711252  22.2622941  56.1950523
  78.6898519  22.1598238  56.5691117  27.1639283  49.1082095  85.7631374
  26.8290652  49.7859017  85.3275596  27.6766154  48.7187406  85.1748246
  27.1904865  49.1506673  85.6118166  31.9490074  42.6370659  88.0873975
  31.8329599  43.3878345  88.5166113  32.7445960  42.3794612  88.3370062
  32.0494663  42.7105506  88.1878067  29.6719379  43.3678303  86.3988265
  29.5870674  44.2239270  86.5437834  30.1603762  43.0922627  87.0670424
  29.7308276  43.4535624  86.5190346  27.3371334  46.2459807  84.6084321
  27.7522483  45.9144831  83.9168816  26.5063264  46.0128710  84.4804457
  27.2759343  46.1631063  84.4875168  30.0304725  42.4970367  83.7945522
  29.9484887  42.5672554  84.6600509  30.6684445  43.0600111  83.6029263
  30.1124562  42.5909338  83.8935472  27.1344835  42.5190821  86.8054129
  27.9485474  42.8105714  86.6936900  27.0703976  41.8650683  86.2312421
  27.2447574  42.4656016  86.7042966  23.9278801  49.4319504  88.3433700
  24.2177099  49.0408486  87.6192927  24.6582281  49.6136209  88.7838976
  24.0785685  49.4013318  88.3016507  32.0292590  45.1020691  89.5355522
  32.5950623  45.7613901  89.4514065  31.3820494  45.4470389  90.0071924
  32.0171347  45.2502632  89.5928278  28.4999168  48.0459475  88.9592601
  28.2585844  47.3127336  88.5519666  28.6800501  48.5946332  88.3058934
  28.4906792  48.0181866  88.8022824  33.2255288  45.1526918  86.3281158
  32.8462097  44.3664056  86.3210447  32.5621534  45.7013775  86.1852802
  33.0713763  45.1171742  86.3061955  28.5720857  45.7352621  82.1469934
  29.3393842  45.7952746  81.7375785  28.1252166  45.1633063  81.6626252
  28.6194284  45.6589197  82.0147644  31.4715387  47.3972409  86.6632844
  31.5535224  48.2039396  86.3394295  31.9565129  47.4168369  87.3873617
  31.5552545  47.5193072  86.7219743  25.2759930  47.3384532  86.9164286
  25.3452750  46.4799070  87.0557286  26.0548385  47.5556413  86.5883310
  25.4012780  47.2437396  86.8881443  29.6667417  49.7622233  91.1300779
  29.2747209  49.4588948  90.4123645  29.8220489  50.5991323  90.9405733
  29.6321007  49.8406070  90.9957276  24.6195457  42.0071387  83.6107044
  24.9087982  42.7836270  83.8850618  24.7067256  41.4960119  84.3121543
  24.6749714  42.0463306  83.7549542  28.9664159  45.9708214  86.9970388
  29.6898358  46.4366327  86.8534961  28.5264750  46.0381824  86.2467985
  29.0079851  46.0492051  86.8655169  29.2268008  50.0328919  87.1568449
  28.5097318  49.8589781  86.6915686  29.8774746  49.7981491  86.6243935
  29.2169859  49.9724712  87.0097667  35.6088307  45.0032730  87.7225304
  35.9921913  45.7524086  87.9523401  34.8132420  45.2498549  87.4637293
  35.5482089  45.1502424  87.7182878  25.2188353  44.5129668  86.6894473
  24.4099676  44.1896341  86.6427783  25.7263262  43.8062890  86.6222722
  25.1738020  44.3610984  86.6724767  37.9247218  55.6477274  85.1762388
  38.1643222  55.8555258  84.3637732  38.2463059  54.8434783  85.2851333
  38.0084376  55.5591375  85.0722941  33.2337508  47.5770670  89.0221926
  33.9883476  47.9448987  88.7838977  33.0565043  47.9510224  89.7901106
  33.3191987  47.6868858  89.1006815  31.5894573  49.9840989  85.7200039
  31.4070146  50.2012870  84.8941032  32.4520186  50.0980001  85.7758654
  31.6899162  50.0330887  85.6054526  37.2694292  46.9867399  88.7549063
  37.9980453  46.8083354  88.3087219  37.3589185  47.8285479  88.9656241
  37.3900954  47.0851278  88.7202581  31.1356600  53.2615161  84.2322512
  30.4214777  52.9753341  84.6444945  31.6200569  53.6011787  84.8728900
  31.1015963  53.2696811  84.3878147  32.3388579  48.3996873  91.6010111
  31.4711004  48.4719472  91.6667720  32.6263783  49.2018952  91.7898086
  32.2528327  48.5291020  91.6384877  30.2655931  51.8755132  89.0426987
  29.9780727  51.5056403  88.3058934  30.9526399  52.3449988  88.7810692
  30.3244828  51.8902102  88.8942062  27.8384126  52.6536345  89.8912268
  27.9400262  53.4562506  90.2193243  28.6340012  52.4523681  89.5935348
  27.9712031  52.7422243  89.8947623  35.5928041  57.5256695  83.6107044
  35.8820566  58.3021578  83.8850618  35.6799840  57.0145427  84.3121543
  35.6482297  57.5648614  83.7549542  38.1285264  49.7485396  87.7996050
  38.5829011  49.9195957  88.5243895  38.6025310  49.1353507  87.3993826
  38.2653584  49.6836281  87.8469812  32.3792725  51.1892478  82.8901626
  32.0305529  51.8412203  83.3533175  31.8989171  51.1749591  82.1625497
  32.2562969  51.2835532  82.8512717  32.7816856  54.6818119  85.7320247
  33.4161936  55.2778545  85.6669709  32.8642467  54.3821577  86.5466117
  32.8873407  54.7259028  85.8423334  34.3595839  50.6132095  85.7065689
  34.6811680  50.1335177  85.0524952  34.6222783  51.4231741  85.5156501
  34.4461864  50.6621993  85.5821181  37.4206950  52.5540219  87.2056353
  36.8271789  52.8757215  86.6540920  37.4582228  51.7081314  86.9977459
  37.3381339  52.4764547  87.0939124  35.3936182  53.1937469  85.2985683
  35.7735147  53.2117098  84.5136798  34.6528778  53.6391458  85.1776530
  35.3405020  53.2619244  85.1649251  35.3855353  49.4198997  87.9813315
  36.2071047  49.5897310  87.7395009  34.9225004  49.5746258  87.2579612
  35.4386515  49.4680730  87.8384959  26.8590107  26.0460226  72.6971421
  26.5241476  26.7237148  72.2615643  27.3716978  25.6565538  72.1088293
  26.8855689  26.0884805  72.5458212  31.6440897  19.5748790  75.0214022
  31.5280423  20.3256476  75.4506160  32.4396784  19.3172743  75.2710109
  31.7445487  19.6483637  75.1218113  29.3670203  20.3056434  73.3328312
  29.2821498  21.1617401  73.4777880  29.8554586  20.0300758  74.0010471
  29.4259100  20.3913756  73.4530393  27.0322158  23.1837939  71.5424367
  27.4473307  22.8522962  70.8508863  26.2014088  22.9506841  71.4144504
  26.9710167  23.1009195  71.4215215  29.7255548  19.4348498  70.7285569
  29.6435711  19.5050685  71.5940556  30.3635269  19.9978242  70.5369309
  29.8075386  19.5287469  70.8275518  23.6229625  26.3697635  75.2773747
  23.9127923  25.9786617  74.5532974  24.3533105  26.5514340  75.7179022
  23.7736509  26.3391449  75.2356554  23.7303496  29.7194408  77.1264589
  24.3827554  29.1870850  77.3555615  23.0329105  29.3663060  77.5132463
  23.7234214  29.5883931  77.2176757  31.7243414  22.0398822  76.4695568
  32.2901447  22.6992032  76.3854111  31.0771318  22.3848520  76.9411971
  31.7122171  22.1880763  76.5268325  28.1949992  24.9837606  75.8932648
  27.9536668  24.2505467  75.4859713  28.3751325  25.5324463  75.2398981
  28.1857616  24.9559997  75.7362871  32.9206112  22.0905049  73.2621205
  32.5412921  21.3042187  73.2550494  32.2572358  22.6391906  73.1192849
  32.7664587  22.0549873  73.2402002  28.2671681  22.6730752  69.0809980
  29.0344666  22.7330877  68.6715832  27.8202990  22.1011194  68.5966299
  28.3145108  22.5967328  68.9487691  31.1666211  24.3350541  73.5972891
  31.2486048  25.1417527  73.2734342  31.6515953  24.3546500  74.3213664
  31.2503369  24.4571203  73.6559789  24.9710753  24.2762663  73.8504332
  25.0403574  23.4177201  73.9897333  25.7499209  24.4934544  73.5223357
  25.0963604  24.1815527  73.8221490  29.3618241  26.7000364  78.0640826
  28.9698033  26.3967079  77.3463692  29.5171313  27.5369454  77.8745780
  29.3271831  26.7784201  77.9297323  24.3146281  18.9449519  70.5447091
  24.6038806  19.7214401  70.8190665  24.4018080  18.4338250  71.2461590
  24.3700537  18.9841437  70.6889589  28.6614983  22.9086345  73.9310435
  29.3849182  23.3744458  73.7875008  28.2215574  22.9759955  73.1808032
  28.7030675  22.9870182  73.7995216  28.9218832  26.9707050  74.0908496
  28.2048142  26.7967912  73.6255733  29.5725570  26.7359622  73.5583982
  28.9120683  26.9102843  73.9437714  35.3039131  21.9410861  74.6565351
  35.6872737  22.6902217  74.8863448  34.5083244  22.1876680  74.3977340
  35.2432913  22.0880555  74.6522924  44.7956907  32.5181796  76.7495712
  44.7650911  33.3726433  76.9213981  45.3938255  32.2177088  77.3081855
  44.8794064  32.5998292  76.8570514  37.9956591  31.6057447  81.5048642
  37.1394487  31.7665945  81.5557759  38.0424245  30.7349511  81.5253703
  37.8755703  31.5008249  81.5154708  32.3797731  41.1420165  77.2685874
  31.6280631  40.7635703  77.0401919  32.8283743  41.1738598  76.5204684
  32.3347398  41.0905772  77.1243376  37.8322691  41.5645534  72.6971421
  37.4974059  42.2422456  72.2615643  38.3449561  41.1750846  72.1088293
  37.8588272  41.6070112  72.5458212  37.3726982  43.5159803  78.6382533
  37.7566362  44.0846702  78.0987308  37.3086124  42.7909313  78.1588349
  37.4200409  43.4935266  78.4876395  40.8408412  33.6649491  84.1480294
  41.3864372  34.3434577  84.2074264  40.7825289  33.5236952  83.2881875
  40.9124327  33.7441492  84.0292354  33.9582487  41.1538557  79.5348646
  34.0592850  40.3438911  79.8445774  33.3624233  41.0595503  78.9048325
  33.8855026  41.0203585  79.4874885  42.6173481  35.0934098  75.0214022
  42.5013007  35.8441784  75.4506160  43.4129368  34.8358051  75.2710109
  42.7178071  35.1668945  75.1218113  33.7983227  46.0716146  80.9363502
  34.4420682  46.5129310  81.3259661  34.1239482  45.2669572  80.8493761
  33.9415056  46.0181341  80.9808980  27.1547532  37.1758843  79.1600980
  26.9197716  36.3426496  79.0533249  27.2933172  37.4563509  78.3462181
  27.1403194  37.0942347  79.0243335  34.5003807  39.0828121  76.3083364
  34.8219648  39.6233328  75.7044672  35.1475903  38.5124892  76.4405654
  34.6429862  39.0787296  76.2390399  36.5505515  31.0844116  76.3917751
  37.2485679  31.2632243  76.8839214  36.8657847  30.5614455  75.7688140
  36.7000852  31.0337888  76.3719761  36.7393450  37.4714561  76.3797542
  37.1787086  36.8631661  76.8252315  36.5898113  37.0921934  75.6083007
  36.7814916  37.3253032  76.3316710  34.2065093  36.0658573  83.5816368
  34.8514096  35.5731016  83.2627316  34.4466870  36.2083359  84.4082446
  34.3375678  36.0136015  83.6565901  36.7451184  38.9113479  83.2323260
  37.0274427  38.1164884  83.0110016  37.4737345  39.3894066  83.2528321
  36.8940748  38.8648075  83.2026275  40.3402787  35.8241742  73.3328312
  40.2554082  36.6802709  73.4777880  40.8287170  35.5486066  74.0010471
  40.3991684  35.9099064  73.4530393  41.9308786  22.4422035  78.7188636
  41.6162227  23.1325514  79.1509058  41.4135728  22.3866818  78.0174137
  41.8073256  22.5356924  78.6785585  41.2721220  32.4426536  74.8326047
  40.7432691  32.6586170  75.4923353  41.7946240  33.1362675  74.7527016
  41.2709673  32.5769673  74.9181646  46.7269273  38.0172841  80.2059091
  45.8966976  38.2283484  80.3692508  46.6778525  37.1909895  79.9301375
  46.5976008  37.9262447  80.1896457  33.1620828  36.3389753  73.6333515
  32.5778043  36.8439784  74.0399379  32.7590923  36.1132140  72.8930107
  33.0160131  36.3798001  73.5838540  28.7164856  42.0544514  80.4357186
  28.2332434  42.7795004  80.4116770  29.5288175  42.3520644  80.5467344
  28.7655604  42.2046868  80.4484465  34.7879010  40.8476695  83.0407001
  34.2705952  40.4884110  82.4368309  35.4853402  40.3238869  83.0513067
  34.8144591  40.7174383  82.9537259  38.4442602  41.2971509  89.0023174
  38.5325948  41.1097649  89.8501384  38.8732315  40.6508939  88.6028020
  38.5204705  41.1734517  89.0694925  36.0113062  40.5802669  87.9840836
  35.4483897  40.1675279  88.5080497  36.7734086  40.5055575  88.4033979
  36.0407511  40.5080070  88.1233836  37.6198042  32.5855405  72.1102435
  37.8594046  32.7933389  71.2977778  37.9413883  31.7812914  72.2191380
  37.7035200  32.4969506  72.0062988  32.9288332  24.5148801  75.9561973
  33.6834300  24.8827118  75.7179023  32.7515867  24.8888355  76.7241153
  33.0142811  24.6246989  76.0346862  31.5709054  42.5700690  80.5877466
  32.2729633  42.0552679  80.6450223  31.4906537  42.8974842  81.3924341
  31.6632814  42.5414916  80.7150258  46.2223231  30.6643241  84.0009512
  45.3851652  30.7345429  84.2357107  46.1911462  30.6667736  83.1283815
  46.0941513  30.6753468  83.9069060  31.2845397  26.9219120  72.6540086
  31.1020970  27.1391001  71.8281079  32.1471010  27.0358133  72.7098701
  31.3849986  26.9709018  72.5394573  30.8959829  38.7607042  80.0963074
  31.7348728  38.9929975  80.1436836  30.9271598  37.8911354  80.0270109
  31.0241547  38.6663989  80.0927719  31.5212532  39.1807917  84.3976380
  32.0610757  39.0379048  85.0679752  30.8382478  39.5804668  84.7660406
  31.5004686  39.2187588  84.5510801  36.9645116  23.9245531  75.6889110
  37.6931277  23.7461486  75.2427266  37.0540009  24.7663610  75.8996288
  37.0851778  24.0229409  75.6542628  40.9453417  34.8598918  79.5921404
  41.7010932  35.2930432  79.6310313  41.0515741  34.2103688  80.1656040
  41.0723587  34.8276402  79.6819430  43.9833588  38.6872195  80.3423807
  43.5468820  38.6908938  81.0982778  43.6496503  39.3677694  79.9103384
  43.8696208  38.7884651  80.3904639  43.9031071  25.7286023  82.5853235
  44.5456979  25.7984128  83.1715150  44.1554092  25.0615246  82.0832777
  44.0353203  25.6412372  82.5980514  30.8307424  30.1993293  71.1662559
  30.1165601  29.9131472  71.5784992  31.3151393  30.5389918  71.8068947
  30.7966787  30.2074942  71.3218194  38.7133055  42.6390630  85.3133413
  37.9148301  42.3990130  85.5707281  39.1619066  42.6905023  86.0600460
  38.6607666  42.6113021  85.4618337  47.1177934  35.4053115  79.2343444
  47.7794368  34.8443784  79.1339353  46.4769346  34.9105146  79.5596135
  47.1206802  35.2489524  79.2675784  38.0054742  38.7023247  71.5424367
  38.4205890  38.3708270  70.8508863  37.1746672  38.4692149  71.4144504
  37.9442751  38.6194502  71.4215215  27.3343091  36.1866988  81.8322545
  27.1518664  36.1613874  80.9794838  28.0692760  36.6565925  81.8711454
  27.4157155  36.2528350  81.7120464  43.4042765  36.4218498  78.9755433
  43.6398354  36.5663696  78.1482284  43.5532329  37.1860906  79.3686947
  43.4608568  36.5557552  78.9119037  45.2333222  35.2620163  76.8125037
  45.5641439  35.7947804  76.2065132  45.8066310  35.3159051  77.4686988
  45.3666901  35.3489732  76.8202818  40.4465111  33.1085066  77.4948617
  40.5411965  33.8474360  77.9488242  39.8223954  32.6802542  77.9283181
  40.3674141  33.1546387  77.6256764  40.6988132  34.9533806  70.7285569
  40.6168295  35.0235993  71.5940556  41.3367853  35.5163550  70.5369309
  40.7807969  35.0472777  70.8275518  34.0581303  34.7194544  80.1960095
  33.8000547  33.8866279  80.1691395  34.1129786  34.9452157  79.3552596
  34.0281081  34.6292315  80.0680232  39.1382353  26.8222995  80.2964188
  38.4338680  26.3332180  80.4548107  39.1867328  26.8345469  79.4252632
  39.0412405  26.7512643  80.1903528  33.0316015  32.2732306  80.6824990
  32.4565607  32.4324475  81.3188951  32.6551692  31.6367715  80.2193440
  32.8918828  32.2030119  80.7079548  46.3412573  30.5030660  78.3165198
  46.0849138  29.6910602  78.1263081  47.1841887  30.5108227  78.0895386
  46.4278599  30.3842658  78.2550015  37.8028242  34.9754260  73.7394175
  38.6168881  35.2669153  73.6276947  37.7387383  34.3214123  73.1652468
  37.9130981  34.9219455  73.6383013  44.0237732  37.6580256  88.1523751
  43.7876370  36.8268321  88.0335812  44.6680961  37.6065864  88.7378595
  44.0832403  37.5277944  88.2209645  33.6736150  38.4475778  78.8666487
  34.3110097  38.2087525  79.4118281  34.0991222  38.6512937  78.1319648
  33.8312317  38.4426788  78.8383645  28.3648793  40.6864114  82.7500791
  28.4052938  40.9578965  81.9220571  28.9243317  41.2106022  83.1658579
  28.4532139  40.8039869  82.6892679  34.3138966  33.6678067  73.2041377
  34.6984118  33.4485774  73.9557922  34.0650586  34.4941013  73.3342453
  34.3341038  33.7576214  73.3342453  45.0474153  37.4424705  84.2152045
  44.7419970  38.1752762  84.5765361  44.3280369  37.0362635  83.9344832
  44.8961495  37.4906438  84.2265183  36.0557622  38.9248200  80.5460274
  36.1296631  38.7623372  81.4002124  36.8727129  39.1138390  80.3020755
  36.1873981  38.9284943  80.6358299  50.7475945  34.0817706  83.5420390
  50.6800445  34.1013665  82.6722976  50.7331608  34.9248033  83.7676060
  50.7354702  34.2091440  83.4472867  29.8163379  39.2706063  77.5754717
  28.9901497  39.5167800  77.4488996  29.8775370  39.1918144  78.4416775
  29.7037546  39.2951012  77.6843662  32.0339403  25.3375004  78.5350157
  31.1661828  25.4097604  78.6007767  32.3214607  26.1397083  78.7238132
  31.9479151  25.4669151  78.5724924  34.5962208  41.8882943  75.2773747
  34.8860507  41.4971925  74.5532974  35.3265689  42.0699648  75.7179022
  34.7469092  41.8576757  75.2356554  48.5334563  32.8562092  81.8166984
  49.0842484  32.2230161  82.0564076  48.5178678  33.3877485  82.5082488
  48.6119759  32.8411040  81.9545842  35.1856953  36.6900689  86.3626878
  34.6868647  37.4016457  86.4411766  35.9957178  37.0101356  86.3245040
  35.2313060  36.8427538  86.3683446  32.5368124  43.8650326  78.3433897
  32.3168419  43.5747680  79.1360564  32.3162646  43.2065281  77.8151809
  32.4715718  43.7250034  78.3822805  31.4485071  35.9523642  80.6089598
  31.1598320  35.3261114  81.1435326  32.3168419  35.8943930  80.6754279
  31.5345323  35.8511187  80.6980553  42.2362969  31.0958426  80.9271580
  41.8927735  30.3748761  81.2778830  42.3356011  30.8872277  80.0849939
  42.2005012  30.9582629  80.8543260  34.7036079  45.2379716  77.1264589
  35.3560137  44.7056158  77.3555615  34.0061688  44.8848368  77.5132463
  34.6966797  45.1069239  77.2176757  31.6517344  37.5918893  76.5331963
  32.4063312  37.9731932  76.7467426  31.0587957  38.0430037  76.9878660
  31.6754058  37.7147721  76.6314842  42.6975998  37.5584130  76.4695568
  43.2634030  38.2177340  76.3854111  42.0503901  37.9033828  76.9411971
  42.6854754  37.7066071  76.5268325  32.9715571  38.7627455  81.9072079
  32.4496324  38.9027746  82.5923944  33.3589591  38.0038119  82.0974196
  32.9519272  38.6712979  82.0373155  29.9606755  28.8133263  75.9767034
  29.6731551  28.4434534  75.2398981  30.6477223  29.2828119  75.7150738
  30.0195652  28.8280233  75.8282109  39.1682576  40.5022914  75.8932648
  38.9269252  39.7690775  75.4859713  39.3483909  41.0509771  75.2398981
  39.1590200  40.4745305  75.7362871  34.3981897  35.7931474  77.3053570
  34.2024679  36.4006208  76.7113873  34.6216242  35.0999418  76.8245244
  34.4016538  35.7808999  77.1469651  32.7960427  32.6786212  77.4234438
  33.5183078  32.8427370  76.9638244  32.3168419  33.3995876  77.3173778
  32.8324157  32.8084441  77.3400052  40.7553934  29.0150010  82.8031123
  39.9165035  29.0411289  82.5669386  40.8258301  29.6620746  83.3836470
  40.6422328  29.1146136  82.8540240  39.2023212  25.9135387  77.5358739
  39.9049565  25.7143136  77.0578697  38.9367401  25.1411330  77.8427583
  39.2669845  25.7698353  77.5104181  44.6311458  34.2217997  80.0892365
  44.5445432  34.3773423  80.9427144  44.1761938  34.8656073  79.7151770
  44.5514715  34.3393752  80.1599472  27.5334950  29.5914476  76.8252315
  27.6351086  30.3940637  77.1533290  28.3290836  29.3901812  76.5275395
  27.6662855  29.6800375  76.8287670  38.5037274  31.5428744  78.7117924
  38.2571988  31.4624495  79.5454713  38.8322397  30.7582212  78.5180452
  38.5158518  31.4155010  78.8065448  42.3985323  38.2512104  82.5004706
  42.2599682  38.9493149  83.0053448  41.6185321  38.0960760  82.1440887
  42.2628550  38.3312270  82.5230980  33.5362056  42.4688235  84.9901934
  33.6851620  41.9091151  84.3375339  34.3162058  42.5480236  85.3734453
  33.6736150  42.3973800  84.9498884  43.8938696  37.6090357  73.2621205
  43.5145504  36.8227495  73.2550494  43.2304941  38.1577214  73.1192849
  43.7397170  37.5735181  73.2402002  36.0615357  42.6402878  86.2686425
  35.9859028  41.9711688  86.8237213  35.9905216  43.3420666  86.7827091
  36.0395964  42.6447785  86.4263273  36.7185604  41.1603876  77.1010031
  37.4835495  40.8913520  76.7792695  36.6163694  40.6753887  77.8180094
  36.8167099  41.0493441  77.1589859  39.2404264  38.1916060  69.0809980
  40.0077249  38.2516185  68.6715832  38.7935573  37.6196502  68.5966299
  39.2877692  38.1152636  68.9487691  40.1382060  36.9970716  81.3662713
  39.4627062  36.7655948  81.8676100  40.1474436  36.3891899  80.7404818
  40.0400564  36.8729641  81.3478865  42.1398794  39.8535848  73.5972891
  42.2218632  40.6602835  73.2734342  42.6248537  39.8731808  74.3213664
  42.2235952  39.9756511  73.6559789  35.9495298  34.5320684  82.2642969
  35.5257547  34.7325183  81.5281987  35.7740153  33.6849532  82.3767269
  35.8606178  34.4369466  82.1716659  35.4506991  46.0471197  84.7264426
  35.9402922  45.3481987  84.5440091  34.8791224  45.7495067  85.3140483
  35.4391521  45.8997421  84.7865467  31.2377743  35.0272736  77.6970941
  31.3942362  34.9619539  78.5526933  31.5778336  35.8021288  77.4849621
  31.3110978  35.1321934  77.7925535  37.7756887  34.4030619  76.5664304
  38.3172433  33.9001000  77.0302925  38.0903446  34.3495814  75.7553790
  37.9021284  34.3210040  76.5148117  35.9443337  39.7947971  73.8504332
  36.0136157  38.9362509  73.9897333  36.7231792  40.0119852  73.5223357
  36.0696187  39.7000835  73.8221490  40.3350825  42.2185672  78.0640826
  39.9430616  41.9152387  77.3463692  40.4903897  43.0554762  77.8745780
  40.3004414  42.2969509  77.9297323  27.8112004  32.2107686  78.0131708
  28.1910969  32.6292231  77.3491976  27.2367369  32.7921142  78.3200552
  27.7823329  32.3585545  77.9608449  40.4990499  38.7835661  78.0046856
  40.1405154  38.9550304  78.7810889  40.0129210  39.2448867  77.4474855
  40.3749196  38.8774632  78.0372125  35.2878865  34.4634826  70.5447091
  35.5771390  35.2399709  70.8190665  35.3750664  33.9523558  71.2461590
  35.3433121  34.5026745  70.6889589  41.6595239  39.6739557  88.9514057
  42.2974959  39.1799753  88.6176513  41.0169330  39.6016957  88.3666284
  41.6589465  39.5898566  88.8156412  43.3852239  31.5228703  83.5179973
  42.9579847  31.4355052  82.7628072  42.7478292  31.6306478  84.1034817
  43.2281846  31.5261363  83.4925414  41.7149495  40.3659365  85.5919414
  42.5041874  40.0148430  85.7121496  41.8893093  41.1795754  85.3296048
  41.8569777  40.4345222  85.5707282  31.4542806  33.7768091  82.6447203
  30.6130812  33.6771965  82.8526097  31.6632814  34.5463571  82.9961523
  31.3607498  33.8760134  82.7274518  28.9318373  31.3987628  80.4731953
  28.5375070  31.4730640  79.6982063  28.3758490  31.7845574  81.0240315
  28.7921185  31.4669403  80.4399613  40.5683320  24.3768922  80.1535832
  40.7732913  24.3091230  80.9992830  40.2409744  25.1827743  80.0857010
  40.5498567  24.4854862  80.2695488  35.2659471  31.7049490  81.8944800
  34.9622608  31.1505478  82.4955208  34.5638891  31.8841700  81.4072835
  35.1175680  31.6494273  81.9114506  34.3225568  29.0150010  76.4589502
  34.5985302  28.2968923  76.0467070  34.9224237  29.6134930  76.2510608
  34.4518832  28.9970381  76.3670263  43.8217007  24.9300686  79.6338598
  43.2091321  25.4171088  80.0192330  43.9181182  24.2544177  80.1776249
  43.7454905  24.9018995  79.7717456  37.8236088  26.6863527  74.7336097
  38.2779835  26.8574088  75.4583942  38.2976134  26.0731638  74.3333873
  37.9604408  26.6214413  74.7809859  31.3451614  36.1711853  84.0638836
  30.7539547  36.8121352  84.0341851  32.1072637  36.5949471  84.0370135
  31.3699874  36.3287692  84.0553983  47.4642035  36.0017623  85.0616114
  47.5225159  36.4504272  85.8076090  46.8308503  36.4116436  84.6246194
  47.3793330  36.1291358  85.1068662  41.1041130  41.6221165  81.4970860
  40.9060819  42.1111979  80.8027072  40.4828841  41.8262406  82.0754994
  40.9828694  41.7237703  81.4794083  35.1649108  33.3906062  75.8381104
  35.9091153  33.7780338  76.0764054  35.3109804  32.5463487  76.0021592
  35.2959693  33.3236535  75.8975074  38.1526984  28.9631535  81.7375024
  37.6786938  28.4373297  82.2480335  38.5245120  28.4161008  81.1689885
  38.1376873  28.8047532  81.7290171  44.4163715  34.0233911  83.1481804
  44.1761938  33.1840326  83.1524231  44.8955722  34.1034077  83.8722578
  44.4515898  33.9115310  83.2556607  40.0810484  29.8568090  74.8000778
  39.5533502  29.9396834  74.1106486  40.5406192  30.5985961  74.7965422
  40.0712334  29.9788752  74.6975473  46.4168902  30.8035368  81.1011063
  46.1778672  30.7631202  80.2631848  46.5802803  31.6506520  81.2276784
  46.4059205  30.9227453  80.9964545  43.0214932  35.1885317  87.0316109
  43.7449131  34.7357844  86.8527128  42.7564894  35.4689983  86.2488436
  43.0896205  35.1636286  86.8894824  32.0743549  28.1270609  69.8241673
  31.7256353  28.7790334  70.2873222  31.5939995  28.1127722  69.0965544
  31.9513793  28.2213663  69.7852764  39.6347566  38.4271653  73.9310435
  40.3581765  38.8929766  73.7875008  39.1948157  38.4945263  73.1808032
  39.6763258  38.5055490  73.7995216  38.8033721  35.2869195  85.1811124
  38.1890714  34.7427246  85.4759759  39.3201006  34.7733432  84.7016940
  38.7889384  35.1305604  85.1535352  38.0430018  36.3573465  82.9155422
  37.6157627  35.7323184  82.4820858  38.0354963  36.0748387  83.7414429
  37.9789160  36.2226246  82.9735250  32.4467458  30.7529140  75.3367717
  32.5870419  31.2501604  76.0396359  32.9449990  30.0515434  75.4781931
  32.5408539  30.7231118  75.4619296  32.4767680  31.6196251  72.6660294
  33.1112759  32.2156676  72.6009756  32.5593291  31.3199708  73.4806164
  32.5824231  31.6637159  72.7763381  45.4550246  34.1511728  85.5346658
  46.0468086  34.7908979  85.5664856  45.8909240  33.4534765  85.8238725
  45.6068677  34.1430078  85.5827491  34.0546663  27.5510226  72.6405736
  34.3762504  27.0713309  71.9864998  34.3173607  28.3609872  72.4496548
  34.1412688  27.6000124  72.5161228  37.2843636  38.5729100  86.1604552
  36.7768727  39.1264947  86.6045183  36.9870282  38.6337390  85.3423327
  37.1648521  38.6635412  86.1053009  28.9820668  33.8164091  75.9349840
  29.4912897  34.4128599  76.3161146  29.4554940  33.5490065  75.2526260
  29.1264044  33.8649907  75.8904363  39.8951416  42.4892358  74.0908496
  39.1780726  42.3153220  73.6255733  40.5458154  42.2544930  73.5583982
  39.8853266  42.4288151  73.9437714  37.8900041  23.4097520  78.4119792
  37.2468359  23.2595166  78.9804931  37.5499448  23.1639865  77.6468897
  37.7445118  23.3509642  78.3822807  42.4799387  31.3656947  77.8349801
  41.8090577  31.9086649  77.7062866  43.1739137  31.8351802  77.5931496
  42.4828255  31.5155218  77.7805329  36.5286121  43.5053659  83.0661559
  36.3051775  42.7472488  83.4345585  36.0395964  43.5351680  82.3441999
  36.4229570  43.3975883  83.0138300  42.6427515  27.8212830  80.7440174
  42.9955125  27.3942553  81.4185973  41.7842316  27.7363674  80.8741250
  42.5676959  27.7457571  80.8635184  31.3411200  30.4520350  78.8023021
  30.6223189  30.8684483  79.0695884  31.7123562  31.0174589  78.2514659
  31.2903131  30.5969631  78.7605828  40.6410780  31.0848199  84.6925016
  40.6208708  30.9031494  85.5459795  40.6889981  31.9560217  84.6684600
  40.6445421  31.1864737  84.8148311  35.1764578  43.7254117  80.5198644
  34.7624976  43.0628247  80.1302485  35.8611952  43.8731976  79.9994338
  35.2162950  43.6494775  80.3855141  38.5429872  42.8844202  81.2722260
  38.1446155  42.9946472  80.5043081  37.9281092  43.0926268  81.8548820
  38.3928761  42.9317770  81.2453560  37.1157774  29.4918350  74.1396400
  36.5222613  29.8135346  73.5880967  37.1533052  28.6459445  73.9317506
  37.0332163  29.4142678  74.0279171  44.0751575  22.9431242  81.6724486
  43.5682439  22.2360382  81.6045664  44.8719008  22.6124431  81.8025563
  44.1178814  22.7904394  81.6823481  39.9915591  29.4497854  77.5698150
  39.7629284  29.4730556  76.7276508  40.2513667  28.6255321  77.6893161
  39.9961779  29.3313934  77.4623348  33.0460353  27.9874401  78.8652346
  33.5217719  28.3491480  78.2302527  32.5448953  28.6430868  79.1452489
  33.0425712  28.1368589  78.8129087  46.2771715  37.4596169  74.6565351
  46.6605320  38.2087525  74.8863448  45.4815828  37.7061988  74.3977340
  46.2165497  37.6065863  74.6522924  35.0887006  30.1315600  72.2325730
  35.4685971  30.1495230  71.4476845  34.3479602  30.5769589  72.1116577
  35.0355844  30.1997375  72.0989298  42.7172297  28.4397792  77.8201309
  42.7166523  28.2846448  78.6785585  42.5128477  29.2860779  77.7642694
  42.6872075  28.5418412  77.9389248  40.4413149  33.1195293  81.4737515
  40.9366814  32.4018289  81.4341536  39.6312925  32.8166091  81.3592002
  40.3957042  32.9692940  81.4511241  35.8871760  36.9693107  73.6234520
  35.0783083  36.6459780  73.5767829  36.3946669  36.2626329  73.5562769
  35.8421427  36.8174423  73.6064814  26.5162038  34.3965300  79.3481884
  25.6507557  34.3850990  79.2364655  26.6160853  34.2095523  80.1953023
  26.4036205  34.3671361  79.4570829  42.5064968  35.8698981  84.1614644
  42.9320039  35.3473403  83.6085069  42.1421888  36.4679818  83.6403267
  42.5151570  35.8809208  84.0023654  32.1419047  44.1663198  82.9211990
  32.4565606  44.9799587  82.9289771  32.5512461  43.7813417  83.5894149
  32.2487145  44.2291901  83.0216081  39.0943567  39.5833245  80.4915802
  39.5654745  40.2973508  80.6605787  39.4303746  38.9831995  81.0275671
  39.2138682  39.6004710  80.5948178  39.7317513  39.3751179  87.2543494
  39.1838459  38.7509063  86.9863560  40.1930542  39.5645451  86.5387574
  39.7184723  39.3110230  87.1093925  35.0806177  26.3577129  74.9153361
  35.9021871  26.5275442  74.6735056  34.6175828  26.5124390  74.1919659
  35.1337339  26.4058862  74.7725006  29.4832068  38.1136307  82.5690598
  30.0876925  38.0732141  81.9404419  29.2759380  38.9607459  82.5994654
  29.5420965  38.2324309  82.4806715  39.2975840  40.3802252  83.7852836
  40.1174214  40.2365218  84.0469131  39.0169917  41.0048451  84.3269273
  39.3772583  40.4512604  83.9040775  55.7689490  48.0367104  76.7495712
  55.7383494  48.8911740  76.9213981  56.3670839  47.7362396  77.3081855
  55.8526648  48.1183600  76.8570514  48.9689175  47.1242755  81.5048642
  48.1127070  47.2851253  81.5557759  49.0156829  46.2534819  81.5253703
  48.8488286  47.0193557  81.5154708  43.3530315  56.6605473  77.2685874
  42.6013214  56.2821011  77.0401919  43.8016326  56.6923906  76.5204684
  43.3079981  56.6091080  77.1243376  48.8055275  57.0830842  72.6971421
  48.4706643  57.7607764  72.2615643  49.3182145  56.6936153  72.1088293
  48.8320856  57.1255420  72.5458212  48.3459566  59.0345111  78.6382533
  48.7298945  59.6032009  78.0987308  48.2818707  58.3094621  78.1588349
  48.3932993  59.0120574  78.4876395  44.9315071  56.6723865  79.5348646
  45.0325434  55.8624219  79.8445774  44.3356816  56.5780811  78.9048325
  44.8587610  56.5388893  79.4874885  53.5906065  50.6119406  75.0214022
  53.4745591  51.3627092  75.4506160  54.3861951  50.3543359  75.2710109
  53.6910654  50.6854253  75.1218113  38.1280115  52.6944151  79.1600980
  37.8930300  51.8611804  79.0533249  38.2665756  52.9748817  78.3462181
  38.1135778  52.6127655  79.0243335  40.4270203  44.8629882  82.0585288
  39.8075234  44.2722529  81.8895302  40.3254066  45.4541317  81.4249611
  40.3207878  44.8633964  81.9390277  45.4736390  54.6013429  76.3083364
  45.7952231  55.1418636  75.7044672  46.1208487  54.0310200  76.4405654
  45.6162445  54.5972604  76.2390399  47.5238098  46.6029424  76.3917751
  48.2218263  46.7817551  76.8839214  47.8390431  46.0799763  75.7688140
  47.6733435  46.5523196  76.3719761  40.1539336  48.4082164  84.3028857
  40.0298032  48.9944609  84.9378676  40.8057620  47.9142359  84.6041132
  40.2312985  48.4220968  84.4414786  47.7126034  52.9899869  76.3797542
  48.1519669  52.3816969  76.8252315  47.5630696  52.6107242  75.6083007
  47.7547499  52.8438340  76.3316710  45.1797677  51.5843881  83.5816368
  45.8246679  51.0916324  83.2627316  45.4199454  51.7268667  84.4082446
  45.3108262  51.5321323  83.6565901  45.6964962  41.9721820  80.4739025
  45.3668292  42.4232964  79.8042724  45.0209964  41.8937984  81.0212032
  45.5475398  42.0272956  80.4562249  51.3135370  51.3427050  73.3328312
  51.2286665  52.1988017  73.4777880  51.8019753  51.0671374  74.0010471
  51.3724267  51.4284372  73.4530393  52.9041370  37.9607343  78.7188636
  52.5894811  38.6510822  79.1509058  52.3868311  37.9052126  78.0174137
  52.7805840  38.0542232  78.6785585  52.2453803  47.9611844  74.8326047
  51.7165275  48.1771478  75.4923353  52.7678823  48.6547983  74.7527016
  52.2442256  48.0954981  74.9181646  44.1353411  51.8575061  73.6333515
  43.5510626  52.3625092  74.0399379  43.7323506  51.6317448  72.8930107
  43.9892715  51.8983309  73.5838540  39.6897440  57.5729822  80.4357186
  39.2065018  58.2980312  80.4116770  40.5020758  57.8705952  80.5467344
  39.7388188  57.7232176  80.4484465  48.5930626  48.1040713  72.1102435
  48.8326629  48.3118697  71.2977778  48.9146467  47.2998222  72.2191380
  48.6767784  48.0154814  72.0062988  43.9020916  40.0334109  75.9561973
  44.6566884  40.4012426  75.7179023  43.7248450  40.4073663  76.7241153
  43.9875394  40.1432297  76.0346862  42.5441637  58.0885998  80.5877466
  43.2462216  57.5737987  80.6450223  42.4639120  58.4160149  81.3924341
  42.6365398  58.0600224  80.7150258  42.2577981  42.4404428  72.6540086
  42.0753554  42.6576309  71.8281079  43.1203594  42.5543441  72.7098701
  42.3582570  42.4894326  72.5394573  41.8692413  54.2792350  80.0963074
  42.7081312  54.5115283  80.1436836  41.9004182  53.4096661  80.0270109
  41.9974130  54.1849297  80.0927719  47.9377700  39.4430839  75.6889110
  48.6663860  39.2646793  75.2427266  48.0272593  40.2848918  75.8996288
  48.0584362  39.5414717  75.6542628  51.9186000  50.3784226  79.5921404
  52.6743515  50.8115740  79.6310313  52.0248325  49.7288996  80.1656040
  52.0456171  50.3461710  79.6819430  37.8982261  50.9193516  84.5510801
  37.6320676  50.1032633  84.7101791  37.9120825  50.9646672  83.6806317
  37.8606983  50.8050421  84.4464283  54.8763654  41.2471331  82.5853235
  55.5189563  41.3169436  83.1715150  55.1286675  40.5800554  82.0832777
  55.0085787  41.1597680  82.5980514  41.8040008  45.7178600  71.1662559
  41.0898185  45.4316780  71.5784992  42.2883976  46.0575226  71.8068947
  41.7699371  45.7260250  71.3218194  42.6480867  44.4571894  87.1977809
  41.9552664  43.9868874  87.4438540  43.2641194  44.2310199  87.7719516
  42.6365397  44.3539026  87.3186961  58.0910518  50.9238423  79.2343444
  58.7526952  50.3629092  79.1339353  57.4501930  50.4290454  79.5596135
  58.0939385  50.7674832  79.2675784  48.9787325  54.2208554  71.5424367
  49.3938474  53.8893578  70.8508863  48.1479255  53.9877457  71.4144504
  48.9175334  54.1379810  71.4215215  38.3075674  51.7052295  81.8322545
  38.1251247  51.6799181  80.9794838  39.0425343  52.1751233  81.8711454
  38.3889738  51.7713658  81.7120464  54.3775348  51.9403805  78.9755433
  54.6130938  52.0849004  78.1482284  54.5264912  52.7046213  79.3686947
  54.4341152  52.0742860  78.9119037  56.2065805  50.7805471  76.8125037
  56.5374022  51.3133112  76.2065132  56.7798893  50.8344359  77.4686988
  56.3399484  50.8675040  76.8202818  51.4197694  48.6270374  77.4948617
  51.5144549  49.3659668  77.9488242  50.7956538  48.1987850  77.9283181
  51.3406724  48.6731695  77.6256764  38.2746585  48.5845796  81.9821612
  38.8520087  48.4482247  82.6213857  37.5760646  48.1281580  82.2367196
  38.2567606  48.4968062  82.1143902  51.6720716  50.4719114  70.7285569
  51.5900878  50.5421301  71.5940556  52.3100436  51.0348858  70.5369309
  51.7540553  50.5658085  70.8275518  45.0313887  50.2379852  80.1960095
  44.7733131  49.4051587  80.1691395  45.0862370  50.4637465  79.3552596
  45.0013665  50.1477623  80.0680232  50.1114937  42.3408303  80.2964188
  49.4071264  41.8517488  80.4548107  50.1599911  42.3530777  79.4252632
  50.0144988  42.2697950  80.1903528  44.0048599  47.7917614  80.6824990
  43.4298190  47.9509783  81.3188951  43.6284275  47.1553023  80.2193440
  43.8651411  47.7215427  80.7079548  47.6721888  46.2640964  85.5417368
  47.2836320  45.8395181  84.8869560  47.0076586  46.5123113  86.0494395
  47.5168815  46.2379685  85.5205236  57.3145157  46.0215968  78.3165198
  57.0581722  45.2095910  78.1263081  58.1574471  46.0293535  78.0895386
  57.4011182  45.9027966  78.2550015  33.7505418  47.4357689  78.6969431
  33.8365670  47.0589557  79.4782960  34.3781215  47.0618135  78.2189389
  33.8561969  47.3243171  78.7414908  51.4948249  39.9615592  83.0541353
  51.8758761  39.2793763  83.4409227  50.6911533  39.6725194  82.8717017
  51.4324711  39.8182641  83.0845408  48.7760826  50.4939568  73.7394175
  49.5901465  50.7854461  73.6276947  48.7119967  49.8399431  73.1652468
  48.8863565  50.4404763  73.6383013  44.6468734  53.9661086  78.8666487
  45.2842681  53.7272833  79.4118281  45.0723806  54.1698245  78.1319648
  44.8044900  53.9612096  78.8383645  39.3381376  56.2049422  82.7500791
  39.3785522  56.4764273  81.9220571  39.8975901  56.7291330  83.1658579
  39.4264722  56.3225177  82.6892679  45.2871549  49.1863375  73.2041377
  45.6716702  48.9671082  73.9557922  45.0383169  50.0126321  73.3342453
  45.3073622  49.2761522  73.3342453  47.0290206  54.4433508  80.5460274
  47.1029214  54.2808680  81.4002124  47.8459712  54.6323698  80.3020755
  47.1606565  54.4470251  80.6358299  40.7895963  54.7891371  77.5754717
  39.9634080  55.0353108  77.4488996  40.8507954  54.7103452  78.4416775
  40.6770130  54.8136320  77.6843662  43.0071986  40.8560312  78.5350157
  42.1394412  40.9282912  78.6007767  43.2947191  41.6582391  78.7238132
  42.9211735  40.9854459  78.5724924  52.1304875  41.0038171  86.8661479
  52.8758467  40.8147982  86.4524905  51.7142180  41.5296409  86.3075335
  52.1789849  41.0540317  86.7226052  45.5694792  57.4068251  75.2773747
  45.8593090  57.0157233  74.5532974  46.2998273  57.5884956  75.7179022
  45.7201676  57.3762065  75.2356554  43.5100707  59.3835634  78.3433897
  43.2901003  59.0932988  79.1360564  43.2895229  58.7250589  77.8151809
  43.4448302  59.2435342  78.3822805  42.4217655  51.4708950  80.6089598
  42.1330903  50.8446421  81.1435326  43.2901003  51.4129238  80.6754279
  42.5077906  51.3696494  80.6980553  53.2095552  46.6143734  80.9271580
  52.8660318  45.8934069  81.2778830  53.3088595  46.4057585  80.0849939
  53.1737595  46.4767937  80.8543260  45.6768663  60.7565024  77.1264589
  46.3292721  60.2241466  77.3555615  44.9794272  60.4033676  77.5132463
  45.6699381  60.6254547  77.2176757  42.6249928  53.1104201  76.5331963
  43.3795896  53.4917240  76.7467426  42.0320541  53.5615345  76.9878660
  42.6486641  53.2333029  76.6314842  53.6708581  53.0769438  76.4695568
  54.2366614  53.7362648  76.3854111  53.0236485  53.4219136  76.9411971
  53.6587338  53.2251379  76.5268325  43.9448155  54.2812763  81.9072079
  43.4228908  54.4213054  82.5923944  44.3322175  53.5223427  82.0974196
  43.9251855  54.1898286  82.0373155  40.9339339  44.3318571  75.9767034
  40.6464134  43.9619842  75.2398981  41.6209807  44.8013427  75.7150738
  40.9928236  44.3465541  75.8282109  50.1415159  56.0208222  75.8932648
  49.9001835  55.2876083  75.4859713  50.3216492  56.5695079  75.2398981
  50.1322783  55.9930613  75.7362871  45.3714480  51.3116782  77.3053570
  45.1757263  51.9191516  76.7113873  45.5948826  50.6184726  76.8245244
  45.3749121  51.2994307  77.1469651  43.7693010  48.1971520  77.4234438
  44.4915662  48.3612678  76.9638244  43.2901003  48.9181184  77.3173778
  43.8056741  48.3269749  77.3400052  51.7286518  44.5335318  82.8031123
  50.8897618  44.5596597  82.5669386  51.7990885  45.1806054  83.3836470
  51.6154911  44.6331444  82.8540240  41.4200627  50.6029592  86.5288578
  41.9321724  50.8813845  85.8797338  41.1336969  51.3418886  86.8951391
  41.4535490  50.7531946  86.4878456  50.1755796  41.4320695  77.5358739
  50.8782149  41.2328444  77.0578697  49.9099985  40.6596638  77.8427583
  50.2402428  41.2883661  77.5104181  55.6044042  49.7403305  80.0892365
  55.5178016  49.8958731  80.9427144  55.1494521  50.3841381  79.7151770
  55.5247298  49.8579060  80.1599472  38.5067533  45.1099784  76.8252315
  38.6083670  45.9125945  77.1533290  39.3023420  44.9087120  76.5275395
  38.6395439  45.1985683  76.8287670  44.9384352  42.6955981  86.5889620
  44.7467549  42.7111115  87.4389043  45.7882948  42.8919655  86.5656275
  45.0360074  42.7270332  86.7112914  39.3231265  45.2246962  84.5673436
  39.1816757  44.3730903  84.6917944  39.6071829  45.2675623  83.7435642
  39.3439111  45.1046712  84.4641060  49.4769858  47.0614052  78.7117924
  49.2304572  46.9809803  79.5454713  49.8054981  46.2767520  78.5180452
  49.4891101  46.9340318  78.8065448  54.8671279  53.1275665  73.2621205
  54.4878088  52.3412803  73.2550494  54.2037525  53.6762522  73.1192849
  54.7129754  53.0920489  73.2402002  47.8488579  42.8911490  86.7961443
  48.3061193  43.6235464  86.9234235  47.9244908  42.4677955  87.5548699
  47.9279549  42.9368728  86.9262519  40.0921570  43.1377310  87.8850887
  39.5563760  42.5257668  88.2011654  40.1539335  43.7125446  88.5384553
  40.0217203  43.1324237  88.0286313  52.3215905  36.0701365  80.6655286
  52.4399473  36.5277828  79.9322588  52.1478081  35.2646626  80.3791503
  52.3135076  36.0195137  80.5156219  47.6918187  56.6789184  77.1010031
  48.4568079  56.4098828  76.7792695  47.5896277  56.1939195  77.8180094
  47.7899683  56.5678749  77.1589859  45.7270957  44.8813594  83.6403267
  44.9367032  44.7005054  83.9620603  46.1231580  44.1040546  83.6233561
  45.6687833  44.7401055  83.6855815  50.2136848  53.7101368  69.0809980
  50.9809833  53.7701493  68.6715832  49.7668157  53.1381810  68.5966299
  50.2610275  53.6337944  68.9487691  51.1114643  52.5156024  81.3662713
  50.4359645  52.2841256  81.8676100  51.1207020  51.9077207  80.7404818
  51.0133148  52.3914949  81.3478865  53.1131378  55.3721156  73.5972891
  53.1951215  56.1788143  73.2734342  53.5981120  55.3917116  74.3213664
  53.1968536  55.4941819  73.6559789  46.9227881  50.0505992  82.2642969
  46.4990130  50.2510491  81.5281987  46.7472737  49.2034840  82.3767269
  46.8338762  49.9554774  82.1716659  42.2110326  50.5458044  77.6970941
  42.3674945  50.4804847  78.5526933  42.5510919  51.3206596  77.4849621
  42.2843561  50.6507242  77.7925535  48.7489471  49.9215927  76.5664304
  49.2905016  49.4186308  77.0302925  49.0636030  49.8681122  75.7553790
  48.8753868  49.8395348  76.5148117  46.9175921  55.3133279  73.8504332
  46.9868741  54.4547817  73.9897333  47.6964376  55.5305160  73.5223357
  47.0428771  55.2186143  73.8221490  49.8978740  44.8152232  86.6186605
  50.1120710  44.1763146  86.0649959  49.2812639  45.2598056  86.1894467
  49.8384070  44.7862376  86.4737036  51.3083408  57.7370980  78.0640826
  50.9163200  57.4337695  77.3463692  51.4636480  58.5740070  77.8745780
  51.2736998  57.8154817  77.9297323  38.7844588  47.7292994  78.0131708
  39.1643553  48.1477539  77.3491976  38.2099953  48.3106450  78.3200552
  38.7555913  47.8770853  77.9608449  51.4723083  54.3020969  78.0046856
  51.1137738  54.4735612  78.7810889  50.9861794  54.7634175  77.4474855
  51.3481780  54.3959940  78.0372125  49.2893469  37.9252167  81.6073948
  48.4187027  37.8990889  81.5607257  49.5433810  37.7529360  80.7899793
  49.1987029  37.8962311  81.4794084  46.2611448  49.9820134  70.5447091
  46.5503973  50.7585017  70.8190665  46.3483247  49.4708866  71.2461590
  46.3165705  50.0212053  70.6889589  46.3142609  39.9358396  83.0647418
  45.7981098  39.2438587  83.1898997  45.7536538  40.6029173  83.0110017
  46.1549123  39.9321654  83.0753484  48.3834843  40.4751356  84.8940271
  47.9966596  40.5000387  85.6753801  47.8967780  39.9093035  84.4414787
  48.2547352  40.3947107  84.9428174  54.3584822  47.0414011  83.5179973
  53.9312430  46.9540359  82.7628072  53.7210875  47.1491786  84.1034817
  54.2014430  47.0446671  83.4925414  48.0491985  37.3618341  87.1850531
  48.6785103  37.8978641  86.9071601  48.2177847  37.2695700  88.0364096
  48.1669779  37.4279704  87.2699059  42.4275389  49.2953399  82.6447203
  41.5863396  49.1957273  82.8526097  42.6365397  50.0648879  82.9961523
  42.3340082  49.3945442  82.7274518  39.9050956  46.9172936  80.4731953
  39.5107654  46.9915948  79.6982063  39.3491073  47.3030882  81.0240315
  39.7653769  46.9854711  80.4399613  51.5415903  39.8954230  80.1535832
  51.7465496  39.8276538  80.9992830  51.2142327  40.7013051  80.0857010
  51.5231151  40.0040170  80.2695488  46.2392054  47.2234798  81.8944800
  45.9355192  46.6690786  82.4955208  45.5371475  47.4027008  81.4072835
  46.0908264  47.1679580  81.9114506  45.2958151  44.5335318  76.4589502
  45.5717886  43.8154230  76.0467070  45.8956821  45.1320238  76.2510608
  45.4251416  44.5155689  76.3670263  54.7949591  40.4485994  79.6338598
  54.1823904  40.9356396  80.0192330  54.8913766  39.7729485  80.1776249
  54.7187488  40.4204303  79.7717456  48.7968672  42.2048835  74.7336097
  49.2512418  42.3759396  75.4583942  49.2708718  41.5916946  74.3333873
  48.9336992  42.1399721  74.7809859  42.3184197  51.6897161  84.0638836
  41.7272130  52.3306659  84.0341851  43.0805221  52.1134779  84.0370135
  42.3432458  51.8473000  84.0553983  42.7144820  42.8499159  84.7306853
  43.1746302  42.9238088  85.4681977  42.7600927  43.6480413  84.3806675
  42.7895375  42.9793306  84.7879610  46.1381692  48.9091370  75.8381104
  46.8823737  49.2965646  76.0764054  46.2842388  48.0648795  76.0021592
  46.2692277  48.8421842  75.8975074  48.0561267  40.7041629  80.8712966
  47.2097312  40.8764436  80.7454316  48.0532400  39.8990972  81.2078794
  47.9308417  40.6102658  80.9024093  49.1259568  44.4816843  81.7375024
  48.6519522  43.9558605  82.2480335  49.4977703  43.9346316  81.1689885
  49.1109457  44.3232840  81.7290171  39.5032598  46.4788350  87.1058570
  40.3658211  46.3784059  87.0195899  39.1724381  45.8983059  86.5444142
  39.5817794  46.3779976  87.0103975  51.0543067  45.3753398  74.8000778
  50.5266086  45.4582142  74.1106486  51.5138775  46.1171269  74.7965422
  51.0444918  45.4974060  74.6975473  57.3901485  46.3220676  81.1011063
  57.1511255  46.2816510  80.2631848  57.5535387  47.1691828  81.2276784
  57.3791789  46.4412761  80.9964545  42.8634384  45.3030799  83.7668988
  42.2387454  45.3149191  83.1594940  42.5279979  45.7790974  84.4160228
  42.7219876  45.3749316  83.7725556  43.0476132  43.6455917  69.8241673
  42.6988937  44.2975642  70.2873222  42.5672578  43.6313030  69.0965544
  42.9246376  43.7398971  69.7852764  39.5760059  53.3631259  85.2072752
  39.0459984  52.6723698  85.2567727  39.8485153  53.3541444  84.3785461
  39.5384782  53.2598391  85.0920168  50.6080150  53.9456961  73.9310435
  51.3314349  54.4115074  73.7875008  50.1680741  54.0130571  73.1808032
  50.6495842  54.0240798  73.7995216  42.1325129  46.9123946  85.9843856
  42.2918616  46.1567271  86.3895578  41.9518023  47.4614886  86.6384594
  42.1290488  46.8817760  86.1406562  50.0745432  39.0785182  86.5394646
  49.5785993  39.2748856  85.8486212  50.8314494  39.4777850  86.3683447
  50.1132257  39.1662916  86.4114782  47.3448312  42.7527528  83.1297956
  47.3690799  42.2187640  82.4410736  47.5959785  42.2444837  83.7923547
  47.3858230  42.5988432  83.1262601  34.8555902  50.0359023  82.5641100
  34.7499351  49.9905867  81.6993184  34.1056122  50.3812803  82.8455385
  34.7291504  50.0799931  82.4778430  43.6249634  41.4798346  82.5103701
  43.6648006  41.9807553  83.2238408  42.7999299  41.5708740  82.2409624
  43.5089160  41.5680163  82.5754239  45.0463997  47.9958856  84.8077600
  44.2155927  48.1632674  84.6012848  44.9915515  47.6194807  85.5926485
  44.9153412  47.9648587  84.8926128  42.8547781  41.4867749  90.4434010
  43.4800484  40.9429882  90.7163443  42.3998261  41.0062667  89.8741801
  42.8796041  41.3357230  90.3995604  43.4200041  46.2714448  75.3367717
  43.5603002  46.7686912  76.0396359  43.9182574  45.5700742  75.4781931
  43.5141122  46.2416426  75.4619296  43.4500264  47.1381559  72.6660294
  44.0845343  47.7341984  72.6009756  43.5325874  46.8385016  73.4806164
  43.5556815  47.1822467  72.7763381  45.0279246  43.0695534  72.6405736
  45.3495087  42.5898617  71.9864998  45.2906190  43.8795180  72.4496548
  45.1145272  43.1185432  72.5161228  50.4238401  42.4567728  85.0029215
  50.8493473  42.0040254  84.3912742  49.8095395  41.9027799  85.2794003
  50.3967047  42.3081704  84.9534240  39.9553251  49.3349399  75.9349840
  40.4645481  49.9313907  76.3161146  40.4287524  49.0675373  75.2526260
  40.0996627  49.3835215  75.8904363  50.8684000  58.0077666  74.0908496
  50.1513309  57.8338528  73.6255733  51.5190737  57.7730238  73.5583982
  50.8585850  57.9473459  73.9437714  48.8632624  38.9282828  78.4119792
  48.2200942  38.7780474  78.9804931  48.5232031  38.6825173  77.6468897
  48.7177702  38.8694950  78.3822807  53.4531971  46.8842255  77.8349801
  52.7823161  47.4271957  77.7062866  54.1471721  47.3537110  77.5931496
  53.4560838  47.0340526  77.7805329  53.6160098  43.3398138  80.7440174
  53.9687708  42.9127861  81.4185973  52.7574900  43.2548982  80.8741250
  53.5409543  43.2642879  80.8635184  42.3143783  45.9705658  78.8023021
  41.5955772  46.3869790  79.0695884  42.6856145  46.5359897  78.2514659
  42.2635715  46.1154939  78.7605828  51.6143364  46.6033507  84.6925016
  51.5941291  46.4216802  85.5459795  51.6622565  47.4745525  84.6684600
  51.6178005  46.7050045  84.8148311  48.0890358  45.0103658  74.1396400
  47.4955197  45.3320654  73.5880967  48.1265635  44.1644753  73.9317506
  48.0064747  44.9327986  74.0279171  55.0484158  38.4616550  81.6724486
  54.5415023  37.7545690  81.6045664  55.8451592  38.1309739  81.8025563
  55.0911398  38.3089701  81.6823481  50.9648174  44.9683162  77.5698150
  50.7361867  44.9915864  76.7276508  51.2246250  44.1440629  77.6893161
  50.9694362  44.8499242  77.4623348  45.2467403  46.8217635  87.1723250
  44.7346306  46.2138818  87.5308282  45.0746899  47.5374228  87.6397226
  45.1457040  46.8380935  87.2939474  40.0933117  45.2655211  89.8225612
  39.9235708  45.9256585  89.2773819  39.6499067  45.4761772  90.5438101
  40.0032451  45.3941193  89.8487242  44.0192937  43.5059709  78.8652346
  44.4950303  43.8676788  78.2302527  43.5181536  44.1616176  79.1452489
  44.0158296  43.6553897  78.8129087  57.2504298  52.9781477  74.6565351
  57.6337904  53.7272833  74.8863448  56.4548412  53.2247296  74.3977340
  57.1898080  53.1251171  74.6522924  36.9935182  48.1702076  85.0814102
  36.4461901  47.5002722  85.1994970  37.7827560  47.8031924  85.1457569
  37.0287365  48.0167063  85.1082803  46.0619590  45.6500908  72.2325730
  46.4418555  45.6680538  71.4476845  45.3212186  46.0954897  72.1116577
  46.0088428  45.7182683  72.0989298  53.6904880  43.9583100  77.8201309
  53.6899107  43.8031756  78.6785585  53.4861060  44.8046087  77.7642694
  53.6604658  44.0603720  77.9389248  35.7522151  47.3822884  82.2360125
  35.5743912  46.9299493  82.9615041  35.4641173  48.1849045  82.4198603
  35.6835104  47.4345442  82.3703628  51.4145732  48.6380601  81.4737515
  51.9099398  47.9203596  81.4341536  50.6045508  48.3351399  81.3592002
  51.3689626  48.4878248  81.4511241  46.8604344  52.4878415  73.6234520
  46.0515667  52.1645088  73.5767829  47.3679253  51.7811637  73.5562769
  46.8154011  52.3359731  73.6064814  37.4894621  49.9150608  79.3481884
  36.6240141  49.9036298  79.2364655  37.5893437  49.7280831  80.1953023
  37.3768788  49.8856669  79.4570829  50.0676151  55.1018553  80.4915802
  50.5387329  55.8158816  80.6605787  50.4036329  54.5017303  81.0275671
  50.1871266  55.1190017  80.5948178  46.9845646  39.8746024  87.4473896
  47.1173551  39.0777017  87.7754872  47.3690798  40.4012427  88.0272172
  47.0601974  39.8345940  87.5817399  50.0578001  36.7976350  84.0454990
  49.2523965  36.6874080  84.3622828  49.9284736  36.8988806  83.1884856
  49.9198134  36.7960020  83.9663030  53.5143961  42.9621842  84.6394687
  52.9306950  43.4631048  84.2272254  53.8348255  42.4551398  84.0059010
  53.4757137  42.9613677  84.4853194  46.0538761  41.8762437  74.9153361
  46.8754455  42.0460749  74.6735056  45.5908411  42.0309698  74.1919659
  46.1069923  41.9244170  74.7725006  44.6434092  39.8705199  85.6951790
  45.1878505  39.5296326  86.2856132  44.6971028  40.7290660  85.8373075
  44.7323212  39.9460458  85.8033664  40.4564651  53.6321615  82.5690598
  41.0609509  53.5917449  81.9404419  40.2491964  54.4792767  82.5994654
  40.5153548  53.7509617  82.4806715  35.6915933  52.6156232  82.4389521
  35.5940211  51.8052504  82.7479578  36.4744803  52.5948026  82.0535789
  35.7932070  52.4923323  82.4276384  59.5663209  63.6226021  72.1102435
  59.8059213  63.8304005  71.2977778  59.8879050  62.8183530  72.2191380
  59.6500367  63.5340122  72.0062988  54.8753499  55.5519417  75.9561973
  55.6299467  55.9197734  75.7179023  54.6981034  55.9258971  76.7241153
  54.9607978  55.6617605  76.0346862  53.2310564  57.9589736  72.6540086
  53.0486137  58.1761617  71.8281079  54.0936177  58.0728748  72.7098701
  53.3315154  58.0079634  72.5394573  58.9110283  54.9616146  75.6889110
  59.6396444  54.7832101  75.2427266  59.0005176  55.8034226  75.8996288
  59.0316945  55.0600025  75.6542628  52.7772591  61.2363908  71.1662559
  52.0630768  60.9502088  71.5784992  53.2616560  61.5760534  71.8068947
  52.7431954  61.2445558  71.3218194  51.9071922  59.8503879  75.9767034
  51.6196718  59.4805150  75.2398981  52.5942390  60.3198735  75.7150738
  51.9660819  59.8650849  75.8282109  49.4800117  60.6285092  76.8252315
  49.5816253  61.4311253  77.1533290  50.2756003  60.4272428  76.5275395
  49.6128022  60.7170991  76.8287670  57.2344032  65.5005442  70.5447091
  57.5236557  66.2770325  70.8190665  57.3215831  64.9894174  71.2461590
  57.2898288  65.5397361  70.6889589  59.7701255  57.7234143  74.7336097
  60.2245002  57.8944704  75.4583942  60.2441301  57.1102254  74.3333873
  59.9069576  57.6585028  74.7809859  54.0208716  59.1641225  69.8241673
  53.6721520  59.8160950  70.2873222  53.5405162  59.1498338  69.0965544
  53.8978960  59.2584279  69.7852764  54.4232847  62.6566867  72.6660294
  55.0577927  63.2527292  72.6009756  54.5058458  62.3570324  73.4806164
  54.5289398  62.7007775  72.7763381  56.0011830  58.5880842  72.6405736
  56.3227671  58.1083924  71.9864998  56.2638774  59.3980488  72.4496548
  56.0877855  58.6370740  72.5161228  59.0622941  60.5288966  74.1396400
  58.4687780  60.8505962  73.5880967  59.0998219  59.6830061  73.9317506
  58.9797330  60.4513294  74.0279171  57.0352173  61.1686216  72.2325730
  57.4151138  61.1865846  71.4476845  56.2944769  61.6140205  72.1116577
  56.9821011  61.2367991  72.0989298  57.0271344  57.3947745  74.9153361
  57.8487038  57.5646057  74.6735056  56.5640995  57.5495005  74.1919659
  57.0802506  57.4429477  74.7725006  26.5540931   2.9838357  59.6311468
  26.2192300   3.6615279  59.1955690  27.0667802   2.5943669  59.0428339
  26.5806512   3.0262936  59.4798259  31.3391721  -3.4873079  61.9554069
  31.2231247  -2.7365393  62.3846207  32.1347608  -3.7449126  62.2050156
  31.4396311  -3.4138232  62.0558160  29.0621027  -2.7565435  60.2668358
  28.9772322  -1.9004468  60.4117927  29.5505410  -3.0321111  60.9350517
  29.1209924  -2.6708113  60.3870440  26.7272982   0.1216070  58.4764414
  27.1424131  -0.2098906  57.7848910  25.8964912  -0.1115028  58.3484551
  26.6660991   0.0387326  58.3555262  29.4206372  -3.6273371  57.6625616
  29.3386535  -3.5571184  58.5280603  30.0586093  -3.0643627  57.4709356
  29.5026210  -3.5334400  57.7615565  23.3180449   3.3075767  62.2113794
  23.6078747   2.9164748  61.4873020  24.0483929   3.4892472  62.6519069
  23.4687333   3.2769580  62.1696601  27.8900816   1.9215737  62.8272694
  27.6487492   1.1883598  62.4199759  28.0702149   2.4702594  62.1739028
  27.8808440   1.8938128  62.6702917  32.6156936  -0.9716819  60.1961252
  32.2363745  -1.7579681  60.1890541  31.9523181  -0.4229962  60.0532896
  32.4615411  -1.0071995  60.1742049  27.9622505  -0.3891117  56.0150027
  28.7295490  -0.3290992  55.6055879  27.5153814  -0.9610675  55.5306346
  28.0095932  -0.4654541  55.8827738  30.8617035   1.2728672  60.5312938
  30.9436872   2.0795658  60.2074388  31.3466777   1.2924631  61.2553711
  30.9454193   1.3949334  60.5899836  24.6661577   1.2140794  60.7844379
  24.7354398   0.3555333  60.9237380  25.4450033   1.4312675  60.4563404
  24.7914428   1.1193658  60.7561537  29.0569065   3.6378495  64.9980873
  28.6648857   3.3345211  64.2803739  29.2122137   4.4747585  64.8085826
  29.0222655   3.7162332  64.8637370  28.3565807  -0.1535524  60.8650481
  29.0800006   0.3122589  60.7215055  27.9166398  -0.0861914  60.1148078
  28.3981499  -0.0751687  60.7335263  28.6169656   3.9085181  61.0248543
  27.8998966   3.7346044  60.5595780  29.2676394   3.6737754  60.4924029
  28.6071507   3.8480974  60.8777760  34.9989955  -1.1211008  61.5905398
  35.3823561  -0.3719652  61.8203495  34.2034068  -0.8745188  61.3317387
  34.9383737  -0.9741314  61.5862971  44.4907730   9.4559927  63.6835759
  44.4601735  10.3104564  63.8554028  45.0889079   9.1555220  64.2421902
  44.5744888   9.5376424  63.7910561  37.6907415   8.5435578  68.4388689
  36.8345311   8.7044076  68.4897806  37.7375069   7.6727642  68.4593750
  37.5706527   8.4386380  68.4494755  32.0748555  18.0798296  64.2025921
  31.3231455  17.7013834  63.9741966  32.5234567  18.1116730  63.4544731
  32.0298222  18.0283903  64.0583423  37.5273515  18.5023665  59.6311468
  37.1924883  19.1800587  59.1955690  38.0400385  18.1128977  59.0428339
  37.5539096  18.5448244  59.4798259  37.0677806  20.4537934  65.5722579
  37.4517186  21.0224833  65.0327355  37.0036947  19.7287444  65.0928395
  37.1151233  20.4313398  65.4216442  40.5359236  10.6027622  71.0820341
  41.0815196  11.2812709  71.1414310  40.4776113  10.4615083  70.2221922
  40.6075151  10.6819624  70.9632401  33.6533311  18.0916688  66.4688693
  33.7543674  17.2817042  66.7785821  33.0575056  17.9973634  65.8388372
  33.5805850  17.9581716  66.4214932  42.3124305  12.0312229  61.9554069
  42.1963831  12.7819915  62.3846207  43.1080192  11.7736182  62.2050156
  42.4128894  12.1047076  62.0558160  33.4934051  23.0094277  67.8703549
  34.1371506  23.4507441  68.2599708  33.8190306  22.2047703  67.7833808
  33.6365879  22.9559472  67.9149026  26.8498356  14.1136975  66.0941027
  26.6148540  13.2804627  65.9873296  26.9883996  14.3941640  65.2802228
  26.8354018  14.0320478  65.9583382  34.1954631  16.0206252  63.2423411
  34.5170472  16.5611459  62.6384719  34.8426727  15.4503023  63.3745701
  34.3380686  16.0165427  63.1730446  36.2456339   8.0222247  63.3257798
  36.9436503   8.2010375  63.8179261  36.5608671   7.4992586  62.7028187
  36.3951676   7.9716019  63.3059808  36.4344274  14.4092692  63.3137589
  36.8737909  13.8009793  63.7592362  36.2848937  14.0300065  62.5423054
  36.4765740  14.2631163  63.2656756  33.9015917  13.0036704  70.5156415
  34.5464920  12.5109147  70.1967363  34.1417694  13.1461490  71.3422493
  34.0326502  12.9514146  70.5905948  36.4402008  15.8491610  70.1663307
  36.7225251  15.0543015  69.9450063  37.1688169  16.3272197  70.1868368
  36.5891572  15.8026207  70.1366322  40.0353611  12.7619873  60.2668358
  39.9504906  13.6180840  60.4117927  40.5237994  12.4864197  60.9350517
  40.0942508  12.8477195  60.3870440  41.6259610  -0.6199833  65.6528683
  41.3113051   0.0703645  66.0849105  41.1086552  -0.6755051  64.9514184
  41.5024080  -0.5264945  65.6125632  40.9672044   9.3804668  61.7666093
  40.4383515   9.5964301  62.4263400  41.4897064  10.0740806  61.6867063
  40.9660497   9.5147804  61.8521693  46.4220097  14.9550972  67.1399138
  45.5917800  15.1661616  67.3032554  46.3729349  14.1288027  66.8641422
  46.2926832  14.8640578  67.1236503  32.8571652  13.2767884  60.5673561
  32.2728867  13.7817916  60.9739425  32.4541747  13.0510271  59.8270153
  32.7110955  13.3176133  60.5178587  28.4115680  18.9922645  67.3697233
  27.9283258  19.7173135  67.3456817  29.2238998  19.2898775  67.4807391
  28.4606428  19.1424999  67.3824512  34.4829834  17.7854826  69.9747047
  33.9656776  17.4262241  69.3708356  35.1804225  17.2617001  69.9853114
  34.5095415  17.6552514  69.8877306  38.1393426  18.2349640  75.9363220
  38.2276772  18.0475781  76.7841431  38.5683139  17.5887070  75.5368067
  38.2155529  18.1112648  76.0034972  35.7063886  17.5180800  74.9180883
  35.1434721  17.1053410  75.4420544  36.4684909  17.4433706  75.3374026
  35.7358335  17.4458201  75.0573883  37.3148866   9.5233536  59.0442482
  37.5544870   9.7311520  58.2317825  37.6364707   8.7191045  59.1531427
  37.3986024   9.4347638  58.9403035  32.6239156   1.4526932  62.8902020
  33.3785124   1.8205249  62.6519070  32.4466691   1.8266486  63.6581200
  32.7093635   1.5625120  62.9686908  31.2659877  19.5078821  67.5217513
  31.9680457  18.9930810  67.5790269  31.1857361  19.8352973  68.3264388
  31.3583638  19.4793048  67.6490305  45.9174055   7.6021373  70.9349559
  45.0802476   7.6723560  71.1697154  45.8862286   7.6045867  70.0623862
  45.7892337   7.6131600  70.8409107  30.9796221   3.8597251  59.5880133
  30.7971794   4.0769132  58.7621126  31.8421834   3.9736264  59.6438747
  31.0800810   3.9087149  59.4734620  30.5910653  15.6985173  67.0303121
  31.4299552  15.9308106  67.0776882  30.6222422  14.8289485  66.9610156
  30.7192370  15.6042120  67.0267766  31.2163356  16.1186049  71.3316426
  31.7561581  15.9757180  72.0019799  30.5333302  16.5182799  71.7000453
  31.1955510  16.1565719  71.4850848  36.6595940   0.8623662  62.6229157
  37.3882101   0.6839617  62.1767313  36.7490833   1.7041742  62.8336335
  36.7802602   0.9607540  62.5882674  40.6404241  11.7977049  66.5261451
  41.3961756  12.2308563  66.5650359  40.7466565  11.1481819  67.0996087
  40.7674411  11.7654533  66.6159476  43.6784412  15.6250326  67.2763854
  43.2419644  15.6287069  68.0322825  43.3447327  16.3055825  66.8443431
  43.5647032  15.7262782  67.3244686  43.5981895   2.6664154  69.5193282
  44.2407803   2.7362259  70.1055197  43.8504916   1.9993377  69.0172824
  43.7304027   2.5790503  69.5320561  30.5258248   7.1371424  58.1002606
  29.8116425   6.8509603  58.5125039  31.0102217   7.4768050  58.7408993
  30.4917611   7.1453073  58.2558241  38.4083879  19.5768761  72.2473460
  37.6099125  19.3368261  72.5047328  38.8569890  19.6283154  72.9940507
  38.3558490  19.5491152  72.3958384  46.8128758  12.3431246  66.1683491
  47.4745192  11.7821915  66.0679399  46.1720170  11.8483277  66.4936182
  46.8157626  12.1867655  66.2015831  37.7005566  15.6401378  58.4764414
  38.1156714  15.3086402  57.7848910  36.8697495  15.4070280  58.3484551
  37.6393575  15.5572634  58.3555262  27.0293915  13.1245119  68.7662592
  26.8469488  13.0992005  67.9134884  27.7643584  13.5944057  68.8051501
  27.1107978  13.1906481  68.6460511  43.0993589  13.3596629  65.9095480
  43.3349178  13.5041828  65.0822330  43.2483152  14.1239037  66.3026993
  43.1559392  13.4935683  65.8459084  44.9284046  12.1998295  63.7465084
  45.2592263  12.7325935  63.1405178  45.5017134  12.2537182  64.4027035
  45.0617725  12.2867863  63.7542865  40.1415935  10.0463197  64.4288664
  40.2362789  10.7852491  64.8828289  39.5174778   9.6180673  64.8623228
  40.0624965  10.0924518  64.5596811  40.3938956  11.8911937  57.6625616
  40.3119118  11.9614124  58.5280603  41.0318676  12.4541681  57.4709356
  40.4758793  11.9850908  57.7615565  33.7532127  11.6572675  67.1300142
  33.4951371  10.8244410  67.1031441  33.8080610  11.8830288  66.2892642
  33.7231905  11.5670446  67.0020279  38.8333177   3.7601126  67.2304235
  38.1289504   3.2710311  67.3888154  38.8818152   3.7723600  66.3592679
  38.7363229   3.6890774  67.1243574  32.7266839   9.2110438  67.6165037
  32.1516431   9.3702606  68.2528998  32.3502516   8.5745847  67.1533487
  32.5869652   9.1408250  67.6419595  46.0363397   7.4408791  65.2505245
  45.7799962   6.6288733  65.0603128  46.8792711   7.4486359  65.0235432
  46.1229422   7.3220789  65.1890062  37.4979066  11.9132391  60.6734222
  38.3119705  12.2047284  60.5616993  37.4338207  11.2592254  60.0992515
  37.6081805  11.8597586  60.5723059  43.7188556  14.5958388  75.0863798
  43.4827194  13.7646452  74.9675858  44.3631785  14.5443995  75.6718642
  43.7783227  14.4656075  75.1549691  33.3686974  15.3853909  65.8006534
  34.0060921  15.1465656  66.3458328  33.7942046  15.5891068  65.0659695
  33.5263141  15.3804919  65.7723692  28.0599617  17.6242245  69.6840838
  28.1003762  17.8957096  68.8560618  28.6194141  18.1484153  70.0998626
  28.1482963  17.7418000  69.6232726  34.0089789  10.6056199  60.1381424
  34.3934942  10.3863905  60.8897969  33.7601410  11.4319144  60.2682500
  34.0291862  10.6954345  60.2682500  44.7424977  14.3802836  71.1492092
  44.4370794  15.1130893  71.5105408  44.0231193  13.9740766  70.8684878
  44.5912319  14.4284569  71.1605229  35.7508446  15.8626331  67.4800320
  35.8247455  15.7001503  68.3342170  36.5677953  16.0516521  67.2360802
  35.8824805  15.8663074  67.5698346  50.4426769  11.0195837  70.4760436
  50.3751269  11.0391796  69.6063023  50.4282432  11.8626164  70.7016107
  50.4305526  11.1469572  70.3812913  29.5114203  16.2084194  64.5094764
  28.6852321  16.4545931  64.3829043  29.5726194  16.1296275  65.3756822
  29.3988370  16.2329143  64.6183708  34.2913032  18.8261075  62.2113794
  34.5811330  18.4350056  61.4873020  35.0216513  19.0077779  62.6519069
  34.4419916  18.7954888  62.1696601  48.2285386   9.7940223  68.7507031
  48.7793308   9.1608292  68.9904123  48.2129502  10.3255616  69.4422535
  48.3070583   9.7789171  68.8885889  34.8807777  13.6278820  73.2966924
  34.3819471  14.3394588  73.3751813  35.6908002  13.9479487  73.2585087
  34.9263884  13.7805669  73.3023493  32.2318948  20.8028457  65.2773944
  32.0119243  20.5125812  66.0700611  32.0113470  20.1443412  64.7491856
  32.1666542  20.6628165  65.3162852  31.1435895  12.8901773  67.5429645
  30.8549144  12.2639245  68.0775373  32.0119243  12.8322061  67.6094326
  31.2296147  12.7889318  67.6320600  41.9313793   8.0336557  67.8611627
  41.5878559   7.3126892  68.2118877  42.0306835   7.8250408  67.0189985
  41.8955836   7.8960760  67.7883307  34.3986903  22.1757847  64.0604636
  35.0510961  21.6434289  64.2895662  33.7012512  21.8226499  64.4472510
  34.3917621  22.0447370  64.1516804  31.3468168  14.5297025  63.4672010
  32.1014136  14.9110064  63.6807473  30.7538781  14.9808168  63.9218707
  31.3704882  14.6525852  63.5654889  42.3926822  14.4962261  63.4035615
  42.9584854  15.1555471  63.3194158  41.7454725  14.8411959  63.8752017
  42.3805578  14.6444202  63.4608372  32.6666395  15.7005586  68.8412126
  32.1447148  15.8405878  69.5263990  33.0540415  14.9416250  69.0314243
  32.6470096  15.6091110  68.9713202  29.6557579   5.7511395  62.9107080
  29.3682375   5.3812665  62.1739028  30.3428047   6.2206250  62.6490785
  29.7146476   5.7658364  62.7622156  38.8633400  17.4401045  62.8272694
  38.6220076  16.7068906  62.4199759  39.0434733  17.9887902  62.1739028
  38.8541024  17.4123436  62.6702917  34.0932720  12.7309605  64.2393617
  33.8975503  13.3384339  63.6453920  34.3167066  12.0377549  63.7585291
  34.0967361  12.7187130  64.0809698  32.4911250   9.6164343  64.3574485
  33.2133902   9.7805501  63.8978291  32.0119243  10.3374008  64.2513825
  32.5274981   9.7462572  64.2740099  40.4504758   5.9528142  69.7371170
  39.6115859   5.9789420  69.5009433  40.5209125   6.5998877  70.3176517
  40.3373152   6.0524267  69.7880287  38.8974036   2.8513519  64.4698786
  39.6000389   2.6521267  63.9918744  38.6318225   2.0789461  64.7767629
  38.9620669   2.7076485  64.4444228  44.3262282  11.1596128  67.0232412
  44.2396256  11.3151554  67.8767191  43.8712762  11.8034204  66.6491817
  44.2465539  11.2771883  67.0939519  27.2285774   6.5292607  63.7592361
  27.3301910   7.3318768  64.0873337  28.0241660   6.3279943  63.4615442
  27.3613679   6.6178506  63.7627717  38.1988098   8.4806875  65.6457971
  37.9522812   8.4002626  66.4794760  38.5273221   7.6960343  65.4520499
  38.2109342   8.3533141  65.7405494  42.0936147  15.1890235  69.4344753
  41.9550506  15.8871281  69.9393495  41.3136145  15.0338891  69.0780934
  41.9579374  15.2690401  69.4571027  33.2312880  19.4066366  71.9241981
  33.3802444  18.8469282  71.2715386  34.0112882  19.4858368  72.3074500
  33.3686974  19.3351931  71.8838930  43.5889520  14.5468489  60.1961252
  43.2096328  13.7605627  60.1890541  42.9255765  15.0955346  60.0532896
  43.4347994  14.5113313  60.1742049  35.7566181  19.5781009  73.2026472
  35.6809852  18.9089819  73.7577260  35.6856040  20.2798797  73.7167138
  35.7346788  19.5825916  73.3603320  36.4136428  18.0982008  64.0350078
  37.1786319  17.8291651  63.7132742  36.3114518  17.6132018  64.7520141
  36.5117923  17.9871572  64.0929906  38.9355088  15.1294191  56.0150027
  39.7028073  15.1894316  55.6055879  38.4886397  14.5574633  55.5306346
  38.9828516  15.0530767  55.8827738  39.8332884  13.9348847  68.3002760
  39.1577886  13.7034079  68.8016147  39.8425260  13.3270030  67.6744865
  39.7351388  13.8107772  68.2818912  41.8349618  16.7913980  60.5312938
  41.9169456  17.5980966  60.2074388  42.3199361  16.8109939  61.2553711
  41.9186776  16.9134642  60.5899836  35.6446122  11.4698816  69.1983016
  35.2208371  11.6703315  68.4622034  35.4690977  10.6227664  69.3107315
  35.5557002  11.3747597  69.1056706  35.1457815  22.9849329  71.6604473
  35.6353745  22.2860118  71.4780137  34.5742047  22.6873199  72.2480530
  35.1342345  22.8375552  71.7205514  30.9328567  11.9650867  64.6310988
  31.0893186  11.8997670  65.4866980  31.2729160  12.7399420  64.4189668
  31.0061802  12.0700065  64.7265582  37.4707711  11.3408751  63.5004351
  38.0123257  10.8379132  63.9642972  37.7854270  11.2873945  62.6893837
  37.5972108  11.2588171  63.4488163  35.6394161  16.7326102  60.7844379
  35.7086981  15.8740641  60.9237380  36.4182616  16.9497983  60.4563404
  35.7647011  16.6378966  60.7561537  40.0301649  19.1563803  64.9980873
  39.6381440  18.8530519  64.2803739  40.1854721  19.9932893  64.8085826
  39.9955238  19.2347640  64.8637370  27.5062828   9.1485817  64.9471755
  27.8861793   9.5670362  64.2832023  26.9318193   9.7299273  65.2540599
  27.4774153   9.2963676  64.8948496  40.1941323  15.7213792  64.9386903
  39.8355978  15.8928435  65.7150936  39.7080034  16.1826998  64.3814902
  40.0700020  15.8152763  64.9712172  34.9829689  11.4012958  57.4787138
  35.2722214  12.1777840  57.7530712  35.0701488  10.8901689  58.1801637
  35.0383945  11.4404876  57.6229635  41.3546063  16.6117688  75.8854104
  41.9925783  16.1177884  75.5516560  40.7120154  16.5395089  75.3006331
  41.3540289  16.5276697  75.7496459  43.0803063   8.4606834  70.4520020
  42.6530671   8.3733183  69.6968119  42.4429116   8.5684610  71.0374864
  42.9232670   8.4639494  70.4265461  41.4100319  17.3037496  72.5259461
  42.1992697  16.9526561  72.6461542  41.5843917  18.1173885  72.2636095
  41.5520601  17.3723354  72.5047329  31.1493630  10.7146222  69.5787250
  30.3081636  10.6150096  69.7866143  31.3583638  11.4841702  69.9301570
  31.0558322  10.8138266  69.6614565  40.2634143   1.3147053  67.0875879
  40.4683737   1.2469361  67.9332876  39.9360567   2.1205874  67.0197057
  40.2449391   1.4232994  67.2035534  34.9610295   8.6427621  68.8284847
  34.6573432   8.0883610  69.4295255  34.2589715   8.8219831  68.3412881
  34.8126504   8.5872404  68.8454553  34.0176392   5.9528141  63.3929549
  34.2936126   5.2347054  62.9807117  34.6175061   6.5513061  63.1850655
  34.1469656   5.9348512  63.3010310  43.5167831   1.8678817  66.5678645
  42.9042145   2.3549220  66.9532377  43.6132006   1.1922308  67.1116296
  43.4405729   1.8397126  66.7057503  37.5186912   3.6241659  61.6676144
  37.9730659   3.7952219  62.3923989  37.9926958   3.0109769  61.2673920
  37.6555232   3.5592544  61.7149906  31.0402438  13.1089985  70.9978883
  30.4490371  13.7499483  70.9681898  31.8023461  13.5327602  70.9710182
  31.0650698  13.2665823  70.9894030  47.1592859  12.9395754  71.9956161
  47.2175983  13.3882403  72.7416137  46.5259327  13.3494567  71.5586241
  47.0744154  13.0669489  72.0408709  40.7991954  18.5599296  68.4310907
  40.6011642  19.0490111  67.7367118  40.1779665  18.7640538  69.0095040
  40.6779518  18.6615834  68.4134130  34.8599932  10.3284193  62.7721151
  35.6041977  10.7158469  63.0104101  35.0060628   9.4841618  62.9361639
  34.9910517  10.2614666  62.8315121  37.8477808   5.9009666  68.6715071
  37.3737762   5.3751428  69.1820382  38.2195944   5.3539139  68.1029932
  37.8327697   5.7425663  68.6630218  44.1114539  10.9612042  70.0821851
  43.8712761  10.1218457  70.0864278  44.5906546  11.0412209  70.8062625
  44.1466722  10.8493442  70.1896653  39.7761308   6.7946221  61.7340824
  39.2484326   6.8774965  61.0446533  40.2357016   7.5364092  61.7305469
  39.7663158   6.9166883  61.6315520  46.1119726   7.7413499  68.0351110
  45.8729496   7.7009333  67.1971895  46.2753627   8.5884651  68.1616831
  46.1010029   7.8605584  67.9304592  42.7165756  12.1263448  73.9656155
  43.4399955  11.6735975  73.7867175  42.4515718  12.4068114  73.1828483
  42.7847029  12.1014417  73.8234871  31.7694373   5.0648740  56.7581720
  31.4207177   5.7168466  57.2213269  31.2890819   5.0505853  56.0305591
  31.6464617   5.1591794  56.7192811  39.3298390  15.3649784  60.8650481
  40.0532589  15.8307897  60.7215055  38.8898981  15.4323394  60.1148078
  39.3714082  15.4433621  60.7335263  38.4984545  12.2247327  72.1151170
  37.8841538  11.6805377  72.4099806  39.0151830  11.7111563  71.6356987
  38.4840208  12.0683736  72.0875399  37.7380842  13.2951597  69.8495469
  37.3108450  12.6701315  69.4160904  37.7305787  13.0126519  70.6754476
  37.6739984  13.1604377  69.9075297  32.1418282   7.6907271  62.2707764
  32.2821243   8.1879735  62.9736405  32.6400814   6.9893565  62.4121978
  32.2359362   7.6609250  62.3959343  32.1718504   8.5574382  59.6000341
  32.8063583   9.1534807  59.5349803  32.2544115   8.2577839  60.4146211
  32.2775055   8.6015290  59.7103427  45.1501070  11.0889859  72.4686705
  45.7418910  11.7287110  72.5004903  45.5860064  10.3912896  72.7578772
  45.3019501  11.0808210  72.5167538  33.7497487   4.4888357  59.5745783
  34.0713328   4.0091440  58.9205045  34.0124431   5.2988003  59.3836595
  33.8363512   4.5378255  59.4501275  36.9794460  15.5107232  73.0944599
  36.4719551  16.0643078  73.5385230  36.6821106  15.5715521  72.2763374
  36.8599345  15.6013543  73.0393056  28.6771492  10.7542223  62.8689887
  29.1863721  11.3506730  63.2501192  29.1505764  10.4868196  62.1866307
  28.8214868  10.8028038  62.8244410  39.5902240  19.4270489  61.0248543
  38.8731550  19.2531352  60.5595780  40.2408977  19.1923062  60.4924029
  39.5804090  19.3666282  60.8777760  37.5850865   0.3475651  65.3459839
  36.9419183   0.1973297  65.9144977  37.2450272   0.1017996  64.5808944
  37.4395942   0.2887773  65.3162854  42.1750211   8.3035078  64.7689848
  41.5041401   8.8464780  64.6402913  42.8689961   8.7729933  64.5271542
  42.1779079   8.4533349  64.7145375  36.2236945  20.4431790  70.0001606
  36.0002599  19.6850619  70.3685632  35.7346788  20.4729811  69.2782046
  36.1180394  20.3354014  69.9478347  42.3378339   4.7590961  67.6780221
  42.6905949   4.3320684  68.3526020  41.4793140   4.6741805  67.8081297
  42.2627783   4.6835702  67.7975231  31.0362024   7.3898481  65.7363067
  30.3174013   7.8062614  66.0035931  31.4074386   7.9552720  65.1854706
  30.9853955   7.5347763  65.6945874  34.8715402  20.6632248  67.4538691
  34.4575800  20.0006378  67.0642532  35.5562776  20.8110107  66.9334385
  34.9113773  20.5872906  67.3195188  38.2380696  19.8222333  68.2062307
  37.8396979  19.9324604  67.4383127  37.6231915  20.0304400  68.7888867
  38.0879585  19.8695901  68.1793606  36.8108598   6.4296481  61.0736447
  36.2173437   6.7513478  60.5221014  36.8483876   5.5837576  60.8657553
  36.7282987   6.3520809  60.9619218  43.7702399  -0.1190627  68.6064533
  43.2633263  -0.8261487  68.5385711  44.5669832  -0.4497438  68.7365610
  43.8129638  -0.2717475  68.6163528  39.6866415   6.3875986  64.5038197
  39.4580108   6.4108687  63.6616555  39.9464491   5.5633453  64.6233208
  39.6912603   6.2692065  64.3963395  32.7411177   4.9252532  65.7992393
  33.2168543   5.2869612  65.1642574  32.2399777   5.5808999  66.0792535
  32.7376536   5.0746721  65.7469134  45.9722539  14.3974300  61.5905398
  46.3556144  15.1465656  61.8203495  45.1766652  14.6440120  61.3317387
  45.9116321  14.5443994  61.5862971  34.7837830   7.0693732  59.1665777
  35.1636795   7.0873361  58.3816891  34.0430426   7.5147720  59.0456624
  34.7306668   7.1375506  59.0329345  42.4123121   5.3775923  64.7541355
  42.4117347   5.2224579  65.6125632  42.2079301   6.2238910  64.6982741
  42.3822899   5.4796544  64.8729295  40.1363973  10.0573425  68.4077562
  40.6317638   9.3396420  68.3681583  39.3263748   9.7544222  68.2932049
  40.0907866   9.9071071  68.3851288  35.5822584  13.9071238  60.5574567
  34.7733907  13.5837911  60.5107876  36.0897493  13.2004460  60.4902815
  35.5372251  13.7552554  60.5404861  26.2112862  11.3343431  66.2821931
  25.3458381  11.3229121  66.1704702  26.3111677  11.1473654  67.1293070
  26.0987028  11.3049492  66.3910875  42.2015792  12.8077112  71.0954691
  42.6270863  12.2851534  70.5425116  41.8372711  13.4057950  70.5743314
  42.2102394  12.8187339  70.9363701  31.8369871  21.1041330  69.8552037
  32.1516430  21.9177718  69.8629818  32.2463285  20.7191548  70.5234196
  31.9437969  21.1670032  69.9556128  38.7894391  16.5211376  67.4255848
  39.2605569  17.2351639  67.5945834  39.1254570  15.9210127  67.9615718
  38.9089506  16.5382841  67.5288224  39.4268337  16.3129311  74.1883541
  38.8789283  15.6887194  73.9203606  39.8881366  16.5023583  73.4727621
  39.4135547  16.2488361  74.0433972  34.7757001   3.2955260  61.8493408
  35.5972695   3.4653573  61.6075103  34.3126652   3.4502521  61.1259706
  34.8288163   3.3436993  61.7065053  29.1782892  15.0514438  69.5030645
  29.7827749  15.0110272  68.8744466  28.9710204  15.8985590  69.5334701
  29.2371789  15.1702441  69.4146761  38.9926664  17.3180383  70.7192882
  39.8125037  17.1743349  70.9809177  38.7120741  17.9426582  71.2609320
  39.0723407  17.3890735  70.8380822  55.4640314  24.9745235  63.6835759
  55.4334318  25.8289872  63.8554028  56.0621663  24.6740528  64.2421902
  55.5477472  25.0561732  63.7910561  48.6639999  24.0620886  68.4388689
  47.8077894  24.2229384  68.4897806  48.7107653  23.1912950  68.4593750
  48.5439110  23.9571688  68.4494755  43.0481139  33.5983604  64.2025921
  42.2964038  33.2199142  63.9741966  43.4967150  33.6302037  63.4544731
  43.0030805  33.5469211  64.0583423  51.9733715  30.3307412  78.0449145
  52.6800483  29.8359442  78.1736080  52.1621651  30.7716493  77.3151803
  52.1061621  30.3225762  77.9558191  48.0410390  35.9723242  65.5722579
  48.4249769  36.5410141  65.0327355  47.9769531  35.2472752  65.0928395
  48.0883817  35.9498705  65.4216442  51.5091820  26.1212930  71.0820341
  52.0547780  26.7998016  71.1414310  51.4508696  25.9800391  70.2221922
  51.5807734  26.2004932  70.9632401  44.6265895  33.6101996  66.4688693
  44.7276258  32.8002350  66.7785821  44.0307640  33.5158942  65.8388372
  44.5538433  33.4767024  66.4214932  53.2856889  27.5497537  61.9554069
  53.1696414  28.3005223  62.3846207  54.0812775  27.2921490  62.2050156
  53.3861478  27.6232384  62.0558160  44.4666634  38.5279585  67.8703549
  45.1104090  38.9692749  68.2599708  44.7922890  37.7233011  67.7833808
  44.6098463  38.4744780  67.9149026  37.8230939  29.6322283  66.0941027
  37.5881124  28.7989935  65.9873296  37.9616580  29.9126948  65.2802228
  37.8086602  29.5505786  65.9583382  40.1221027  21.8008013  68.9925335
  39.5026058  21.2100660  68.8235349  40.0204890  22.3919448  68.3589658
  40.0158702  21.8012096  68.8730324  45.1687214  31.5391560  63.2423411
  45.4903055  32.0796767  62.6384719  45.8159311  30.9688331  63.3745701
  45.3113269  31.5350735  63.1730446  47.2188922  23.5407555  63.3257798
  47.9169087  23.7195682  63.8179261  47.5341255  23.0177894  62.7028187
  47.3684259  23.4901327  63.3059808  39.8490160  25.3460295  71.2368903
  39.7248856  25.9322740  71.8718722  40.5008444  24.8520491  71.5381178
  39.9263809  25.3599099  71.3754833  47.4076858  29.9278000  63.3137589
  47.8470493  29.3195100  63.7592362  47.2581520  29.5485373  62.5423054
  47.4498323  29.7816471  63.2656756  44.8748501  28.5222012  70.5156415
  45.5197503  28.0294455  70.1967363  45.1150278  28.6646798  71.3422493
  45.0059086  28.4699454  70.5905948  47.4134592  31.3676918  70.1663307
  47.6957835  30.5728323  69.9450063  48.1420752  31.8457505  70.1868368
  47.5624156  31.3211515  70.1366322  45.3915786  18.9099952  67.4079072
  45.0619116  19.3611095  66.7382771  44.7160788  18.8316115  67.9552079
  45.2426222  18.9651087  67.3902296  51.0086194  28.2805181  60.2668358
  50.9237489  29.1366148  60.4117927  51.4970577  28.0049505  60.9350517
  51.0675091  28.3662503  60.3870440  52.5992194  14.8985474  65.6528683
  52.2845635  15.5888953  66.0849105  52.0819135  14.8430257  64.9514184
  52.4756664  14.9920363  65.6125632  51.9404627  24.8989975  61.7666093
  51.4116099  25.1149609  62.4263400  52.4629647  25.5926114  61.6867063
  51.9393080  25.0333112  61.8521693  57.3952680  30.4736280  67.1399138
  56.5650383  30.6846924  67.3032554  57.3461933  29.6473334  66.8641422
  57.2659416  30.3825886  67.1236503  43.8304235  28.7953192  60.5673561
  43.2461450  29.3003224  60.9739425  43.4274330  28.5695579  59.8270153
  43.6843539  28.8361441  60.5178587  39.3848264  34.5107953  67.3697233
  38.9015842  35.2358443  67.3456817  40.1971582  34.8084083  67.4807391
  39.4339011  34.6610307  67.3824512  45.4562418  33.3040134  69.9747047
  44.9389359  32.9447549  69.3708356  46.1536809  32.7802308  69.9853114
  45.4827999  33.1737822  69.8877306  49.1126010  33.7534948  75.9363220
  49.2009356  33.5661089  76.7841431  49.5415722  33.1072378  75.5368067
  49.1888112  33.6297956  76.0034972  46.6796470  33.0366108  74.9180883
  46.1167304  32.6238718  75.4420544  47.4417493  32.9619014  75.3374026
  46.7090918  32.9643509  75.0573883  48.2881450  25.0418844  59.0442482
  48.5277453  25.2496828  58.2317825  48.6097291  24.2376353  59.1531427
  48.3718607  24.9532945  58.9403035  43.5971740  16.9712240  62.8902020
  44.3517708  17.3390557  62.6519070  43.4199274  17.3451794  63.6581200
  43.6826218  17.0810428  62.9686908  42.2392461  35.0264129  67.5217513
  42.9413040  34.5116118  67.5790269  42.1589944  35.3538281  68.3264388
  42.3316221  34.9978355  67.6490305  56.8906639  23.1206681  70.9349559
  56.0535060  23.1908868  71.1697154  56.8594869  23.1231175  70.0623862
  56.7624921  23.1316908  70.8409107  43.2871368  25.2639716  76.6497928
  43.4591871  25.1545611  77.4983209  43.8240725  25.9094122  76.4129120
  43.3916372  25.3431718  76.7403025  41.9528804  19.3782559  59.5880133
  41.7704378  19.5954440  58.7621126  42.8154417  19.4921572  59.6438747
  42.0533394  19.4272457  59.4734620  41.5643236  31.2170481  67.0303121
  42.4032136  31.4493414  67.0776882  41.5955006  30.3474793  66.9610156
  41.6924954  31.1227428  67.0267766  42.1895939  31.6371356  71.3316426
  42.7294164  31.4942487  72.0019799  41.5065886  32.0368107  71.7000453
  42.1688093  31.6751027  71.4850848  47.6328524  16.3808970  62.6229157
  48.3614684  16.2024925  62.1767313  47.7223417  17.2227049  62.8336335
  47.7535186  16.4792848  62.5882674  51.6136824  27.3162357  66.5261451
  52.3694339  27.7493871  66.5650359  51.7199149  26.6667127  67.0996087
  51.7406995  27.2839841  66.6159476  54.6516995  31.1435634  67.2763854
  54.2152227  31.1472377  68.0322825  54.3179911  31.8241133  66.8443431
  54.5379615  31.2448090  67.3244686  49.2246069  33.1843967  78.6007004
  50.0086486  33.2974815  78.9662746  49.0242664  32.3585104  78.7965690
  49.3112094  33.0790687  78.6841390  37.5933085  27.8571647  71.4850848
  37.3271500  27.0410764  71.6441838  37.6071649  27.9024803  70.6146363
  37.5557807  27.7428552  71.3804330  54.5714478  18.1849462  69.5193282
  55.2140387  18.2547567  70.1055197  54.8237499  17.5178685  69.0172824
  54.7036610  18.0975811  69.5320561  41.4990831  22.6556732  58.1002606
  40.7849009  22.3694911  58.5125039  41.9834800  22.9953357  58.7408993
  41.4650195  22.6638381  58.2558241  42.3431691  21.3950026  74.1317856
  41.6503488  20.9247005  74.3778587  42.9592018  21.1688330  74.7059563
  42.3316221  21.2917157  74.2527008  49.3816462  35.0954069  72.2473460
  48.5831708  34.8553569  72.5047328  49.8302474  35.1468462  72.9940507
  49.3291074  35.0676460  72.3958384  57.7861342  27.8616554  66.1683491
  58.4477776  27.3007223  66.0679399  57.1452754  27.3668585  66.4936182
  57.7890209  27.7052963  66.2015831  48.6738149  31.1586686  58.4764414
  49.0889298  30.8271709  57.7848910  47.8430079  30.9255588  58.3484551
  48.6126158  31.0757942  58.3555262  38.0026498  28.6430427  68.7662592
  37.8202071  28.6177313  67.9134884  38.7376167  29.1129364  68.8051501
  38.0840562  28.7091789  68.6460511  54.0726172  28.8781937  65.9095480
  54.3081762  29.0227136  65.0822330  54.2215736  29.6424345  66.3026993
  54.1291976  29.0120991  65.8459084  41.0672250  25.3615429  75.2744701
  41.7912222  25.3468460  75.7609596  41.1688386  26.0710785  74.7766669
  41.1890459  25.4640133  75.2723488  55.9016629  27.7183603  63.7465084
  56.2324846  28.2511243  63.1405178  56.4749717  27.7722490  64.4027035
  56.0350308  27.8053171  63.7542865  48.4417199  28.8414514  80.1393648
  47.6490180  29.1558026  80.3246267  48.5566126  29.0565983  79.3014432
  48.3412610  28.9198351  80.0431983  51.1148518  25.5648505  64.4288664
  51.2095373  26.3037799  64.8828289  50.4907362  25.1365981  64.8623228
  51.0357548  25.6109826  64.5596811  49.3700992  28.7434718  75.0778945
  49.9439854  28.1061962  75.2327508  49.2915796  28.7438800  74.2088602
  49.4434227  28.6499829  74.9725355  37.9697409  25.5223927  68.9161659
  38.5470911  25.3860378  69.5553904  37.2711470  25.0659711  69.1707243
  37.9518430  25.4346194  69.0483948  51.3671540  27.4097245  57.6625616
  51.2851702  27.4799432  58.5280603  52.0051260  27.9726989  57.4709356
  51.4491377  27.5036216  57.7615565  44.7264711  27.1757983  67.1300142
  44.4683955  26.3429718  67.1031441  44.7813194  27.4015596  66.2892642
  44.6964489  27.0855754  67.0020279  49.8065761  19.2786434  67.2304235
  49.1022088  18.7895619  67.3888154  49.8550735  19.2908908  66.3592679
  49.7095812  19.2076082  67.1243574  43.6999423  24.7295745  67.6165037
  43.1249014  24.8887914  68.2528998  43.3235099  24.0931155  67.1533487
  43.5602235  24.6593558  67.6419595  47.3672711  23.2019095  72.4757415
  46.9787144  22.7773312  71.8209606  46.7027410  23.4501244  72.9834442
  47.2119639  23.1757816  72.4545283  57.0095981  22.9594099  65.2505245
  56.7532545  22.1474041  65.0603128  57.8525295  22.9671667  65.0235432
  57.0962006  22.8406097  65.1890062  33.4456242  24.3735820  65.6309477
  33.5316494  23.9967689  66.4123007  34.0732039  23.9996266  65.1529436
  33.5512793  24.2621302  65.6754955  51.1899073  16.8993723  69.9881399
  51.5709585  16.2171895  70.3749274  50.3862357  16.6103326  69.8057064
  51.1275535  16.7560772  70.0185455  48.4711650  27.4317699  60.6734222
  49.2852289  27.7232592  60.5616993  48.4070791  26.7777562  60.0992515
  48.5814389  27.3782894  60.5723059  54.6921140  30.1143695  75.0863798
  54.4559777  29.2831760  74.9675858  55.3364369  30.0629303  75.6718642
  54.7515811  29.9841383  75.1549691  44.3419558  30.9039217  65.8006534
  44.9793505  30.6650964  66.3458328  44.7674630  31.1076376  65.0659695
  44.4995724  30.8990227  65.7723692  39.0332200  33.1427553  69.6840838
  39.0736346  33.4142404  68.8560618  39.5926724  33.6669461  70.0998626
  39.1215546  33.2603308  69.6232726  44.9822373  26.1241507  60.1381424
  45.3667526  25.9049213  60.8897969  44.7333993  26.9504452  60.2682500
  45.0024446  26.2139653  60.2682500  45.1490913  19.4047922  79.8544008
  44.8344355  20.1747484  79.5913571  44.8280846  18.8418178  79.2696235
  45.0549833  19.4358190  79.7285358  55.7157561  29.8988144  71.1492092
  55.4103378  30.6316201  71.5105408  54.9963776  29.4926074  70.8684878
  55.5644903  29.9469877  71.1605229  46.7241030  31.3811639  67.4800320
  46.7980038  31.2186811  68.3342170  47.5410536  31.5701829  67.2360802
  46.8557389  31.3848382  67.5698346  61.4159353  26.5381145  70.4760436
  61.3483853  26.5577104  69.6063023  61.4015015  27.3811472  70.7016107
  61.4038109  26.6654880  70.3812913  40.4846787  31.7269502  64.5094764
  39.6584904  31.9731239  64.3829043  40.5458778  31.6481583  65.3756822
  40.3720954  31.7514451  64.6183708  42.7022810  17.7938443  65.4690204
  41.8345236  17.8661043  65.5347813  42.9898015  18.5960522  65.6578179
  42.6162558  17.9232590  65.5064971  51.8255699  17.9416303  73.8001526
  52.5709291  17.7526113  73.3864951  51.4093004  18.4674541  73.2415382
  51.8740673  17.9918448  73.6566099  45.2645616  34.3446382  62.2113794
  45.5543914  33.9535364  61.4873020  45.9949097  34.5263087  62.6519069
  45.4152500  34.3140196  62.1696601  59.2017970  25.3125531  68.7507031
  59.7525892  24.6793600  68.9904123  59.1862085  25.8440924  69.4422535
  59.2803166  25.2974479  68.8885889  45.8540361  29.1464128  73.2966924
  45.3552055  29.8579896  73.3751813  46.6640585  29.4664795  73.2585087
  45.8996468  29.2990977  73.3023493  42.1168478  28.4087081  67.5429645
  41.8281727  27.7824553  68.0775373  42.9851827  28.3507369  67.6094326
  42.2028730  28.3074626  67.6320600  52.9046376  23.5521865  67.8611627
  52.5611142  22.8312200  68.2118877  53.0039419  23.3435716  67.0189985
  52.8688419  23.4146068  67.7883307  45.3719487  37.6943155  64.0604636
  46.0243545  37.1619597  64.2895662  44.6745096  37.3411807  64.4472510
  45.3650205  37.5632678  64.1516804  42.3200752  30.0482332  63.4672010
  43.0746720  30.4295371  63.6807473  41.7271364  30.4993476  63.9218707
  42.3437465  30.1711160  63.5654889  53.3659405  30.0147569  63.4035615
  53.9317438  30.6740779  63.3194158  52.7187309  30.3597267  63.8752017
  53.3538162  30.1629510  63.4608372  44.7807419  22.0045173  78.5929223
  43.9707195  22.3102952  78.4819065  45.2582106  22.7250755  78.7081807
  44.7310898  22.1559774  78.5936294  43.6398978  31.2190894  68.8412126
  43.1179732  31.3591185  69.5263990  44.0272999  30.4601558  69.0314243
  43.6202679  31.1276418  68.9713202  40.6290162  21.2696703  62.9107080
  40.3414958  20.8997973  62.1739028  41.3160631  21.7391558  62.6490785
  40.6879060  21.2843672  62.7622156  49.8365983  32.9586353  62.8272694
  49.5952659  32.2254214  62.4199759  50.0167316  33.5073210  62.1739028
  49.8273607  32.9308744  62.6702917  45.0665304  28.2494913  64.2393617
  44.8708087  28.8569647  63.6453920  45.2899650  27.5562857  63.7585291
  45.0699945  28.2372438  64.0809698  43.4643834  25.1349651  64.3574485
  44.1866486  25.2990809  63.8978291  42.9851827  25.8559316  64.2513825
  43.5007565  25.2647880  64.2740099  51.4237342  21.4713450  69.7371170
  50.5848442  21.4974728  69.5009433  51.4941709  22.1184185  70.3176517
  51.3105735  21.5709575  69.7880287  41.1151451  27.5407723  73.4628625
  41.6272548  27.8191976  72.8137385  40.8287793  28.2797017  73.8291438
  41.1486314  27.6910077  73.4218503  49.8706620  18.3698827  64.4698786
  50.5732973  18.1706575  63.9918744  49.6050809  17.5974769  64.7767629
  49.9353252  18.2261793  64.4444228  55.2994865  26.6781436  67.0232412
  55.2128840  26.8336862  67.8767191  54.8445345  27.3219512  66.6491817
  55.2198122  26.7957191  67.0939519  38.2018357  22.0477915  63.7592361
  38.3034494  22.8504076  64.0873337  38.9974244  21.8465251  63.4615442
  38.3346263  22.1363814  63.7627717  44.6335176  19.6334112  73.5229667
  44.4418373  19.6489246  74.3729090  45.4833772  19.8297786  73.4996321
  44.7310898  19.6648463  73.6452961  39.0182089  22.1625093  71.5013483
  38.8767581  21.3109034  71.6257991  39.3022653  22.2053754  70.6775689
  39.0389935  22.0424843  71.3981107  49.1720682  23.9992183  65.6457971
  48.9255396  23.9187934  66.4794760  49.5005805  23.2145651  65.4520499
  49.1841925  23.8718449  65.7405494  53.0668730  30.7075543  69.4344753
  52.9283090  31.4056589  69.9393495  52.2868728  30.5524199  69.0780934
  52.9311957  30.7875709  69.4571027  51.4046816  27.0071918  75.6867134
  51.3994854  26.1351735  75.6909561  52.1107809  27.2060087  75.2136590
  51.5091819  26.9075792  75.6174170  45.1317709  26.7348902  75.0580954
  45.2761085  27.3150110  74.4224064  45.4793357  27.1125199  75.7630809
  45.2045170  26.8769606  75.0679949  47.3037626  25.9339070  72.8406086
  46.5560940  26.1270085  72.4354364  47.4579151  25.1084290  72.6030207
  47.2160054  25.8404182  72.7451492  44.2045464  34.9251674  71.9241981
  44.3535028  34.3654590  71.2715386  44.9845466  35.0043676  72.3074500
  44.3419557  34.8537239  71.8838930  54.5622103  30.0653797  60.1961252
  54.1828912  29.2790934  60.1890541  53.8988349  30.6140654  60.0532896
  54.4080578  30.0298621  60.1742049  46.7298764  35.0966317  73.2026472
  46.6542436  34.4275127  73.7577260  46.6588624  35.7984105  73.7167138
  46.7079371  35.1011224  73.3603320  47.5439403  19.8289621  73.7301490
  48.0012017  20.5613595  73.8574282  47.6195732  19.4056086  74.4888745
  47.6230373  19.8746859  73.8602566  39.7872394  20.0755441  74.8190933
  39.2514584  19.4635799  75.1351701  39.8490159  20.6503577  75.4724600
  39.7168027  20.0702369  74.9626360  52.0166729  13.0079496  67.5995333
  52.1350297  13.4655960  66.8662635  51.8428905  12.2024757  67.3131550
  52.0085900  12.9573268  67.4496266  47.3869011  33.6167316  64.0350078
  48.1518902  33.3476959  63.7132742  47.2847101  33.1317326  64.7520141
  47.4850507  33.5056880  64.0929906  45.4221781  21.8191725  70.5743314
  44.6317856  21.6383185  70.8960650  45.8182404  21.0418678  70.5573608
  45.3638657  21.6779186  70.6195862  50.8065467  29.4534155  68.3002760
  50.1310469  29.2219387  68.8016147  50.8157844  28.8455338  67.6744865
  50.7083972  29.3293080  68.2818912  47.9359611  24.2951984  75.0566813
  47.8718753  25.1561941  74.9286949  48.0756799  23.9783977  74.2562364
  47.9475081  24.3752151  74.9195025  52.8082202  32.3099288  60.5312938
  52.8902039  33.1166274  60.2074388  53.2931944  32.3295247  61.2553711
  52.8919360  32.4319950  60.5899836  46.6178705  26.9884123  69.1983016
  46.1940954  27.1888623  68.4622034  46.4423560  26.1412971  69.3107315
  46.5289586  26.8932905  69.1056706  46.1190399  38.5034636  71.6604473
  46.6086329  37.8045426  71.4780137  45.5474631  38.2058506  72.2480530
  46.1074929  38.3560860  71.7205514  41.9061150  27.4836175  64.6310988
  42.0625769  27.4182978  65.4866980  42.2461743  28.2584727  64.4189668
  41.9794385  27.5885373  64.7265582  48.4440295  26.8594058  63.5004351
  48.9855840  26.3564440  63.9642972  48.7586854  26.8059253  62.6893837
  48.5704692  26.7773479  63.4488163  52.3157402  31.0696706  80.6131263
  53.1292268  30.7981855  80.7736396  52.1552369  30.7704246  79.8091459
  52.4127351  30.9851632  80.5176669  46.6126745  32.2511410  60.7844379
  46.6819565  31.3925948  60.9237380  47.3915200  32.4683291  60.4563404
  46.7379595  32.1564274  60.7561537  49.5929564  21.7530363  73.5526652
  49.8071534  21.1141277  72.9990006  48.9763463  22.1976187  73.1234513
  49.5334893  21.7240507  73.4077083  51.0034232  34.6749111  64.9980873
  50.6114024  34.3715826  64.2803739  51.1587304  35.5118201  64.8085826
  50.9687822  34.7532948  64.8637370  38.4795412  24.6671125  64.9471755
  38.8594377  25.0855670  64.2832023  37.9050777  25.2484581  65.2540599
  38.4506737  24.8148984  64.8948496  51.7568652  23.3619428  74.4909959
  50.9445334  23.0545319  74.5723132  52.2158587  22.8818428  75.0552671
  51.7049037  23.2455921  74.5864553  51.1673907  31.2399100  64.9386903
  50.8088562  31.4113743  65.7150936  50.6812618  31.7012306  64.3814902
  51.0432604  31.3338071  64.9712172  48.9844293  14.8630299  68.5413995
  48.1137851  14.8369020  68.4947304  49.2384634  14.6907491  67.7239840
  48.8937853  14.8340442  68.4134131  45.9562272  26.9198266  57.4787138
  46.2454797  27.6963148  57.7530712  46.0434071  26.4086997  58.1801637
  46.0116529  26.9590184  57.6229635  48.8522160  24.7679500  79.2738661
  49.3221791  25.3921616  79.6606535  48.8984040  24.0996475  79.8331876
  48.9290036  24.7614180  79.4138733  46.0093433  16.8736527  69.9987465
  45.4931922  16.1816719  70.1239044  45.4487362  17.5407304  69.9450064
  45.8499947  16.8699785  70.0093531  48.0785667  17.4129487  71.8280317
  47.6917420  17.4378519  72.6093847  47.5918604  16.8471166  71.3754834
  47.9498176  17.3325238  71.8768221  52.3278646  32.1302996  75.8854104
  52.9658367  31.6363192  75.5516560  51.6852738  32.0580397  75.3006331
  52.3272873  32.0462005  75.7496459  54.0535646  23.9792142  70.4520020
  53.6263254  23.8918491  69.6968119  53.4161699  24.0869918  71.0374864
  53.8965254  23.9824802  70.4265461  47.7442809  14.2996473  74.1190577
  48.3735927  14.8356773  73.8411648  47.9128671  14.2073832  74.9704143
  47.8620603  14.3657835  74.2039106  47.5456723  19.0867667  76.3916989
  48.3730153  18.8152816  76.4475603  47.5664570  19.8828509  76.7480807
  47.6709574  19.1647422  76.4532172  52.3832903  32.8222804  72.5259461
  53.1725281  32.4711869  72.6461542  52.5576501  33.6359193  72.2636095
  52.5253185  32.8908662  72.5047329  42.1226213  26.2331530  69.5787250
  41.2814220  26.1335404  69.7866143  42.3316221  27.0027010  69.9301570
  42.0290906  26.3323573  69.6614565  39.6001780  23.8551067  67.4072000
  39.2058478  23.9294079  66.6322110  39.0441897  24.2409013  67.9580362
  39.4604593  23.9232842  67.3739660  51.2366727  16.8332361  67.0875879
  51.4416320  16.7654669  67.9332876  50.9093151  17.6391182  67.0197057
  51.2181975  16.9418302  67.2035534  45.9342878  24.1612929  68.8284847
  45.6306016  23.6068918  69.4295255  45.2322299  24.3405139  68.3412881
  45.7859088  24.1057712  68.8454553  44.9908975  21.4713449  63.3929549
  45.2668710  20.7532362  62.9807117  45.5907645  22.0698369  63.1850655
  45.1202240  21.4533820  63.3010310  43.9961229  31.3762650  73.5356945
  43.8881584  31.3864712  74.4019003  44.2057011  32.2017430  73.3461899
  44.0111340  31.5003725  73.6361037  54.4900415  17.3864125  66.5678645
  53.8774728  17.8734528  66.9532377  54.5864590  16.7107616  67.1116296
  54.4138312  17.3582434  66.7057503  48.4919496  19.1426966  61.6676144
  48.9463242  19.3137527  62.3923989  48.9659542  18.5295077  61.2673920
  48.6287816  19.0777852  61.7149906  42.0135021  28.6275292  70.9978883
  41.4222954  29.2684791  70.9681898  42.7756045  29.0512910  70.9710182
  42.0383282  28.7851131  70.9894030  42.4095644  19.7877290  71.6646900
  42.8697126  19.8616220  72.4022024  42.4551751  20.5858544  71.3146722
  42.4846199  19.9171437  71.7219657  44.0578994  20.4543985  76.2318927
  43.6664559  19.8077332  76.6674705  44.2264856  21.0455420  76.8513183
  44.0249904  20.4458253  76.3881633  58.1325443  28.4581062  71.9956161
  58.1908566  28.9067711  72.7416137  57.4991910  28.8679875  71.5586241
  58.0476738  28.5854797  72.0408709  51.7724537  34.0784604  68.4310907
  51.5744226  34.5675418  67.7367118  51.1512248  34.2825846  69.0095040
  51.6512102  34.1801142  68.4134130  45.8332516  25.8469501  62.7721151
  46.5774561  26.2343777  63.0104101  45.9793212  25.0026926  62.9361639
  45.9643101  25.7799974  62.8315121  47.7512091  17.6419760  67.8053013
  46.9048136  17.8142568  67.6794363  47.7483224  16.8369103  68.1418841
  47.6259241  17.5480789  67.8364140  48.8210392  21.4194974  68.6715071
  48.3470346  20.8936736  69.1820382  49.1928527  20.8724447  68.1029932
  48.8060281  21.2610971  68.6630218  39.1983422  23.4166481  74.0398616
  40.0609035  23.3162190  73.9535946  38.8675205  22.8361190  73.4784189
  39.2768618  23.3158108  73.9444022  55.0847122  26.4797350  70.0821851
  54.8445345  25.6403765  70.0864278  55.5639129  26.5597517  70.8062625
  55.1199306  26.3678750  70.1896653  50.7493891  22.3131529  61.7340824
  50.2216910  22.3960273  61.0446533  51.2089599  23.0549400  61.7305469
  50.7395742  22.4352191  61.6315520  57.0852309  23.2598807  68.0351110
  56.8462079  23.2194641  67.1971895  57.2486210  24.1069959  68.1616831
  57.0742613  23.3790892  67.9304592  53.6898339  27.6448756  73.9656155
  54.4132538  27.1921283  73.7867175  53.4248302  27.9253422  73.1828483
  53.7579613  27.6199725  73.8234871  42.5585208  22.2408930  70.7009035
  41.9338278  22.2527322  70.0934987  42.2230803  22.7169105  71.3500275
  42.4170700  22.3127447  70.7065603  42.7426956  20.5834048  56.7581720
  42.3939761  21.2353774  57.2213269  42.2623402  20.5691161  56.0305591
  42.6197200  20.6777102  56.7192811  39.2710883  30.3009390  72.1412799
  38.7410808  29.6101829  72.1907774  39.5435977  30.2919575  71.3125507
  39.2335606  30.1976522  72.0260215  50.3030974  30.8835092  60.8650481
  51.0265173  31.3493205  60.7215055  49.8631565  30.9508702  60.1148078
  50.3446666  30.9618929  60.7335263  49.4717129  27.7432635  72.1151170
  48.8574122  27.1990685  72.4099806  49.9884414  27.2296871  71.6356987
  49.4572791  27.5869044  72.0875399  48.7113426  28.8136905  69.8495469
  48.2841034  28.1886623  69.4160904  48.7038370  28.5311826  70.6754476
  48.6472567  28.6789685  69.9075297  41.8275953  23.8502078  72.9183903
  41.9869440  23.0945402  73.3235625  41.6468847  24.3993017  73.5724641
  41.8241312  23.8195891  73.0746609  49.7696256  16.0163313  73.4734693
  49.2736817  16.2126987  72.7826259  50.5265318  16.4155981  73.3023494
  49.8083081  16.1041047  73.3454829  47.0399136  19.6905659  70.0638003
  47.0641623  19.1565771  69.3750783  47.2910609  19.1822968  70.7263594
  47.0809054  19.5366563  70.0602648  34.5506726  26.9737154  69.4981147
  34.4450175  26.9283998  68.6333231  33.8006945  27.3190935  69.7795432
  34.4242328  27.0178062  69.4118477  43.3200458  18.4176477  69.4443747
  43.3598830  18.9185684  70.1578455  42.4950123  18.5086871  69.1749670
  43.2039984  18.5058294  69.5094286  45.5030071  27.9837217  77.5464042
  44.6525701  28.1208932  77.6821687  45.6658199  27.2500996  77.9911744
  45.4013934  27.8951319  77.6319641  44.7414821  24.9336987  71.7417646
  43.9106751  25.1010805  71.5352895  44.6866338  24.5572938  72.5266532
  44.6104236  24.9026718  71.8266175  42.5498605  18.4245880  77.3774057
  43.1751308  17.8808013  77.6503489  42.0949084  17.9440798  76.8081847
  42.5746865  18.2735361  77.3335651  43.1150865  23.2092579  62.2707764
  43.2553826  23.7065043  62.9736405  43.6133398  22.5078873  62.4121978
  43.2091946  23.1794558  62.3959343  43.1451088  24.0759690  59.6000341
  43.7796167  24.6720115  59.5349803  43.2276698  23.7763147  60.4146211
  43.2507639  24.1200598  59.7103427  56.1233653  26.6075167  72.4686705
  56.7151494  27.2472418  72.5004903  56.5592648  25.9098204  72.7578772
  56.2752085  26.5993517  72.5167538  44.7230070  20.0073665  59.5745783
  45.0445911  19.5276748  58.9205045  44.9857014  20.8173311  59.3836595
  44.8096096  20.0563563  59.4501275  47.9527043  31.0292540  73.0944599
  47.4452134  31.5828386  73.5385230  47.6553689  31.0900829  72.2763374
  47.8331928  31.1198851  73.0393056  50.1189225  19.3945859  71.9369262
  50.5444297  18.9418386  71.3252788  49.5046218  18.8405930  72.2134049
  50.0917871  19.2459835  71.8874287  39.6504075  26.2727531  62.8689887
  40.1596305  26.8692038  63.2501192  40.1238348  26.0053504  62.1866307
  39.7947451  26.3213346  62.8244410  50.5634823  34.9455797  61.0248543
  49.8464133  34.7716659  60.5595780  51.2141561  34.7108370  60.4924029
  50.5536674  34.8851590  60.8777760  48.5583448  15.8660959  65.3459839
  47.9151766  15.7158605  65.9144977  48.2182855  15.6203304  64.5808944
  48.4128526  15.8073081  65.3162854  53.1482795  23.8220386  64.7689848
  52.4773985  24.3650088  64.6402913  53.8422545  24.2915241  64.5271542
  53.1511662  23.9718657  64.7145375  47.1969528  35.9617098  70.0001606
  46.9735183  35.2035927  70.3685632  46.7079372  35.9915119  69.2782046
  47.0912977  35.8539322  69.9478347  53.3110922  20.2776269  67.6780221
  53.6638532  19.8505992  68.3526020  52.4525724  20.1927113  67.8081297
  53.2360367  20.2021010  67.7975231  42.0094607  22.9083789  65.7363067
  41.2906596  23.3247922  66.0035931  42.3806969  23.4738028  65.1854706
  41.9586539  23.0533071  65.6945874  51.3094188  23.5411638  71.6265063
  51.2892115  23.3594933  72.4799842  51.3573389  24.4123656  71.6024647
  51.3128829  23.6428176  71.7488358  49.2540518  30.1298830  77.5513540
  49.2136373  29.4848507  76.9658696  50.0663836  30.0735447  77.8638952
  49.3683671  30.0257797  77.5110489  45.8447985  36.1817556  67.4538691
  45.4308384  35.5191686  67.0642532  46.5295360  36.3295415  66.9334385
  45.8846357  36.1058214  67.3195188  49.2113279  35.3407641  68.2062307
  48.8129563  35.4509911  67.4383127  48.5964499  35.5489707  68.7888867
  49.0612169  35.3881209  68.1793606  47.7841182  21.9481789  61.0736447
  47.1906021  22.2698785  60.5221014  47.8216459  21.1022884  60.8657553
  47.7015571  21.8706117  60.9619218  54.7434982  15.3994681  68.6064533
  54.2365847  14.6923821  68.5385711  55.5402416  15.0687870  68.7365610
  54.7862221  15.2467833  68.6163528  50.6598998  21.9061293  64.5038197
  50.4312691  21.9293995  63.6616555  50.9197074  21.0818760  64.6233208
  50.6645186  21.7877373  64.3963395  44.9418227  23.7595767  74.1063297
  44.4297130  23.1516949  74.4648329  44.7697723  24.4752359  74.5737273
  44.8407864  23.7759066  74.2279521  39.7883941  22.2033342  76.7565659
  39.6186532  22.8634717  76.2113866  39.3449891  22.4139903  77.4778148
  39.6983275  22.3319324  76.7827289  43.7143761  20.4437840  65.7992393
  44.1901127  20.8054920  65.1642574  43.2132360  21.0994307  66.0792535
  43.7109120  20.5932029  65.7469134  56.9455122  29.9159608  61.5905398
  57.3288728  30.6650964  61.8203495  56.1499235  30.1625428  61.3317387
  56.8848904  30.0629302  61.5862971  48.8187297  21.6820011  76.5465553
  49.3758727  21.4533821  75.9144018  48.4948362  22.4425677  76.2700765
  48.8533707  21.7603848  76.4122050  36.6886006  25.1080207  72.0154149
  36.1412725  24.4380853  72.1335017  37.4778384  24.7410055  72.0797616
  36.7238189  24.9545194  72.0422849  46.5370414  24.7687664  77.5117560
  47.2881741  25.0839341  77.8257114  46.7292991  24.5666835  76.6851482
  46.6761828  24.7855046  77.4360956  45.7570414  22.5879040  59.1665777
  46.1369379  22.6058669  58.3816891  45.0163010  23.0333028  59.0456624
  45.7039252  22.6560814  59.0329345  53.3855704  20.8961231  64.7541355
  53.3849931  20.7409887  65.6125632  53.1811884  21.7424218  64.6982741
  53.3555482  20.9981852  64.8729295  35.4472975  24.3201015  69.1700172
  35.2694736  23.8677624  69.8955088  35.1591997  25.1227177  69.3538649
  35.3785928  24.3723573  69.3043675  51.1096556  25.5758733  68.4077562
  51.6050222  24.8581728  68.3681583  50.2996332  25.2729530  68.2932049
  51.0640450  25.4256379  68.3851288  46.5555168  29.4256546  60.5574567
  45.7466491  29.1023219  60.5107876  47.0630077  28.7189768  60.4902815
  46.5104835  29.2737862  60.5404861  37.1845445  26.8528739  66.2821931
  36.3190965  26.8414429  66.1704702  37.2844261  26.6658962  67.1293070
  37.0719612  26.8234800  66.3910875  53.1748375  28.3262420  71.0954691
  53.6003447  27.8036842  70.5425116  52.8105295  28.9243257  70.5743314
  53.1834978  28.3372647  70.9363701  42.8102455  36.6226638  69.8552037
  43.1249014  37.4363026  69.8629818  43.2195868  36.2376856  70.5234196
  42.9170553  36.6855340  69.9556128  49.7626975  32.0396684  67.4255848
  50.2338153  32.7536947  67.5945834  50.0987153  31.4395434  67.9615718
  49.8822090  32.0568149  67.5288224  51.8503959  33.6497998  79.6047921
  51.9600925  32.8606558  79.9604668  52.1794856  33.5603934  78.8022259
  51.9156365  33.5203851  79.5390311  46.6796470  16.8124155  74.3813943
  46.8124375  16.0155148  74.7094919  47.0641622  17.3390558  74.9612219
  46.7552798  16.7724072  74.5157446  50.4000921  31.8314618  74.1883541
  49.8521867  31.2072502  73.9203606  50.8613950  32.0208891  73.4727621
  50.3868130  31.7673669  74.0433972  49.7528825  13.7354481  70.9795037
  48.9474788  13.6252211  71.2962875  49.6235560  13.8366937  70.1224902
  49.6148958  13.7338151  70.9003077  53.2094785  19.8999973  71.5734733
  52.6257774  20.4009179  71.1612301  53.5299079  19.3929529  70.9399057
  53.1707961  19.8991808  71.4193241  45.7489584  18.8140568  61.8493408
  46.5705279  18.9838881  61.6075103  45.2859235  18.9687829  61.1259706
  45.8020747  18.8622301  61.7065053  44.3384916  16.8083330  72.6291837
  44.8829329  16.4674457  73.2196179  44.3921852  17.6668792  72.7713122
  44.4274036  16.8838589  72.7373710  40.1515475  30.5699746  69.5030645
  40.7560333  30.5295580  68.8744466  39.9442788  31.4170898  69.5334701
  40.2104372  30.6887749  69.4146761  49.9659247  32.8365691  70.7192882
  50.7857621  32.6928657  70.9809177  49.6853325  33.4611890  71.2609320
  50.0455991  32.9076043  70.8380822  35.3866757  29.5534364  69.3729568
  35.2891035  28.7430635  69.6819625  36.1695627  29.5326157  68.9875836
  35.4882894  29.4301454  69.3616431  66.4372898  40.4930543  63.6835759
  66.4066902  41.3475180  63.8554028  67.0354246  40.1925835  64.2421902
  66.5210056  40.5747039  63.7910561  59.6372582  39.5806194  68.4388689
  58.7810478  39.7414692  68.4897806  59.6840236  38.7098258  68.4593750
  59.5171694  39.4756996  68.4494755  54.0213722  49.1168912  64.2025921
  53.2696622  48.7384450  63.9741966  54.4699734  49.1487345  63.4544731
  53.9763389  49.0654519  64.0583423  62.9466299  45.8492720  78.0449145
  63.6533066  45.3544750  78.1736080  63.1354234  46.2901801  77.3151803
  63.0794205  45.8411070  77.9558191  59.4738682  49.5394281  59.6311468
  59.1390051  50.2171203  59.1955690  59.9865553  49.1499593  59.0428339
  59.5004263  49.5818859  59.4798259  59.0142973  51.4908550  65.5722579
  59.3982353  52.0595449  65.0327355  58.9502115  50.7658060  65.0928395
  59.0616401  51.4684013  65.4216442  62.4824404  41.6398238  71.0820341
  63.0280364  42.3183324  71.1414310  62.4241280  41.4985699  70.2221922
  62.5540318  41.7190240  70.9632401  55.5998478  49.1287304  66.4688693
  55.7008841  48.3187658  66.7785821  55.0040224  49.0344250  65.8388372
  55.5271017  48.9952332  66.4214932  64.2589472  43.0682845  61.9554069
  64.1428998  43.8190531  62.3846207  65.0545359  42.8106798  62.2050156
  64.3594062  43.1417692  62.0558160  55.4399218  54.0464893  67.8703549
  56.0836673  54.4878057  68.2599708  55.7655474  53.2418319  67.7833808
  55.5831047  53.9930088  67.9149026  48.7963523  45.1507590  66.0941027
  48.5613707  44.3175243  65.9873296  48.9349163  45.4312256  65.2802228
  48.7819185  45.0691094  65.9583382  51.0953610  37.3193321  68.9925335
  50.4758642  36.7285968  68.8235349  50.9937474  37.9104756  68.3589658
  50.9891286  37.3197404  68.8730324  56.1419798  47.0576868  63.2423411
  56.4635639  47.5982075  62.6384719  56.7891894  46.4873639  63.3745701
  56.2845853  47.0536043  63.1730446  58.1921506  39.0592863  63.3257798
  58.8901670  39.2380990  63.8179261  58.5073838  38.5363202  62.7028187
  58.3416843  39.0086635  63.3059808  50.8222743  40.8645603  71.2368903
  50.6981440  41.4508048  71.8718722  51.4741028  40.3705799  71.5381178
  50.8996392  40.8784407  71.3754833  58.3809441  45.4463308  63.3137589
  58.8203077  44.8380408  63.7592362  58.2314104  45.0670681  62.5423054
  58.4230907  45.3001779  63.2656756  55.8481084  44.0407320  70.5156415
  56.4930087  43.5479763  70.1967363  56.0882861  44.1832106  71.3422493
  55.9791669  43.9884762  70.5905948  58.3867175  46.8862226  70.1663307
  58.6690418  46.0913631  69.9450063  59.1153336  47.3642813  70.1868368
  58.5356739  46.8396823  70.1366322  56.3648369  34.4285260  67.4079072
  56.0351699  34.8796403  66.7382771  55.6893371  34.3501423  67.9552079
  56.2158806  34.4836395  67.3902296  61.9818778  43.7990489  60.2668358
  61.8970073  44.6551456  60.4117927  62.4703161  43.5234813  60.9350517
  62.0407675  43.8847811  60.3870440  63.5724777  30.4170782  65.6528683
  63.2578218  31.1074261  66.0849105  63.0551719  30.3615565  64.9514184
  63.4489248  30.5105671  65.6125632  62.9137211  40.4175283  61.7666093
  62.3848682  40.6334917  62.4263400  63.4362231  41.1111422  61.6867063
  62.9125664  40.5518420  61.8521693  68.3685264  45.9921588  67.1399138
  67.5382967  46.2032231  67.3032554  68.3194516  45.1658642  66.8641422
  68.2391999  45.9011194  67.1236503  54.8036819  44.3138500  60.5673561
  54.2194034  44.8188532  60.9739425  54.4006914  44.0880887  59.8270153
  54.6576123  44.3546748  60.5178587  50.3580847  50.0293261  67.3697233
  49.8748426  50.7543751  67.3456817  51.1704166  50.3269391  67.4807391
  50.4071595  50.1795615  67.3824512  56.4295001  48.8225442  69.9747047
  55.9121943  48.4632857  69.3708356  57.1269393  48.2987616  69.9853114
  56.4560583  48.6923130  69.8877306  60.0858593  49.2720256  75.9363220
  60.1741939  49.0846396  76.7841431  60.5148306  48.6257686  75.5368067
  60.1620696  49.1483264  76.0034972  57.6529053  48.5551416  74.9180883
  57.0899888  48.1424026  75.4420544  58.4150077  48.4804322  75.3374026
  57.6823502  48.4828817  75.0573883  59.2614033  40.5604152  59.0442482
  59.5010037  40.7682136  58.2317825  59.5829874  39.7561661  59.1531427
  59.3451191  40.4718253  58.9403035  54.5704323  32.4897548  62.8902020
  55.3250291  32.8575865  62.6519070  54.3931858  32.8637102  63.6581200
  54.6558802  32.5995736  62.9686908  53.2125045  50.5449437  67.5217513
  53.9145624  50.0301426  67.5790269  53.1322528  50.8723589  68.3264388
  53.3048805  50.5163663  67.6490305  67.8639222  38.6391988  70.9349559
  67.0267643  38.7094176  71.1697154  67.8327453  38.6416483  70.0623862
  67.7357505  38.6502216  70.8409107  54.2603951  40.7825024  76.6497928
  54.4324455  40.6730919  77.4983209  54.7973309  41.4279430  76.4129120
  54.3648955  40.8617026  76.7403025  52.9261388  34.8967867  59.5880133
  52.7436961  35.1139748  58.7621126  53.7887001  35.0106880  59.6438747
  53.0265978  34.9457765  59.4734620  52.5375820  46.7355789  67.0303121
  53.3764719  46.9678722  67.0776882  52.5687589  45.8660101  66.9610156
  52.6657538  46.6412736  67.0267766  53.1628523  47.1556664  71.3316426
  53.7026748  47.0127795  72.0019799  52.4798469  47.5553415  71.7000453
  53.1420677  47.1936335  71.4850848  58.6061107  31.8994278  62.6229157
  59.3347268  31.7210233  62.1767313  58.6956000  32.7412357  62.8336335
  58.7267769  31.9978156  62.5882674  62.5869408  42.8347665  66.5261451
  63.3426923  43.2679179  66.5650359  62.6931732  42.1852435  67.0996087
  62.7139579  42.8025149  66.6159476  65.6249579  46.6620942  67.2763854
  65.1884811  46.6657685  68.0322825  65.2912495  47.3426441  66.8443431
  65.5112199  46.7633398  67.3244686  60.1978653  48.7029275  78.6007004
  60.9819069  48.8160123  78.9662746  59.9975247  47.8770412  78.7965690
  60.2844678  48.5975994  78.6841390  48.5665668  43.3756955  71.4850848
  48.3004083  42.5596072  71.6441838  48.5804232  43.4210111  70.6146363
  48.5290390  43.2613860  71.3804330  65.5447062  33.7034770  69.5193282
  66.1872970  33.7732875  70.1055197  65.7970083  33.0363993  69.0172824
  65.6769194  33.6161119  69.5320561  52.4723415  38.1742040  58.1002606
  51.7581592  37.8880219  58.5125039  52.9567384  38.5138665  58.7408993
  52.4382778  38.1823689  58.2558241  53.3164274  36.9135333  74.1317856
  52.6236071  36.4432313  74.3778587  53.9324602  36.6873638  74.7059563
  53.3048804  36.8102465  74.2527008  60.3549046  50.6139377  72.2473460
  59.5564292  50.3738877  72.5047328  60.8035057  50.6653770  72.9940507
  60.3023657  50.5861768  72.3958384  68.7593925  43.3801862  66.1683491
  69.4210359  42.8192531  66.0679399  68.1185337  42.8853893  66.4936182
  68.7622793  43.2238271  66.2015831  59.6470733  46.6771994  58.4764414
  60.0621881  46.3457017  57.7848910  58.8162663  46.4440896  58.3484551
  59.5858742  46.5943250  58.3555262  48.9759082  44.1615735  68.7662592
  48.7934655  44.1362621  67.9134884  49.7108751  44.6314672  68.8051501
  49.0573146  44.2277097  68.6460511  65.0458756  44.3967245  65.9095480
  65.2814345  44.5412443  65.0822330  65.1948320  45.1609653  66.3026993
  65.1024559  44.5306299  65.8459084  52.0404833  40.8800737  75.2744701
  52.7644806  40.8653768  75.7609596  52.1420970  41.5896093  74.7766669
  52.1623042  40.9825441  75.2723488  66.8749213  43.2368910  63.7465084
  67.2057430  43.7696551  63.1405178  67.4482301  43.2907798  64.4027035
  67.0082892  43.3238479  63.7542865  59.4149783  44.3599822  80.1393648
  58.6222764  44.6743334  80.3246267  59.5298710  44.5751290  79.3014432
  59.3145193  44.4383659  80.0431983  62.0881102  41.0833813  64.4288664
  62.1827956  41.8223107  64.8828289  61.4639945  40.6551289  64.8623228
  62.0090132  41.1295134  64.5596811  60.3433576  44.2620026  75.0778945
  60.9172437  43.6247270  75.2327508  60.2648379  44.2624108  74.2088602
  60.4166811  44.1685137  74.9725355  48.9429992  41.0409235  68.9161659
  49.5203495  40.9045686  69.5553904  48.2444054  40.5845019  69.1707243
  48.9251013  40.9531501  69.0483948  62.3404123  42.9282553  57.6625616
  62.2584286  42.9984740  58.5280603  62.9783844  43.4912297  57.4709356
  62.4223960  43.0221524  57.7615565  55.6997294  42.6943291  67.1300142
  55.4416539  41.8615026  67.1031441  55.7545777  42.9200904  66.2892642
  55.6697072  42.6041062  67.0020279  60.7798344  34.7971742  67.2304235
  60.0754671  34.3080927  67.3888154  60.8283319  34.8094216  66.3592679
  60.6828396  34.7261390  67.1243574  54.6732006  40.2481053  67.6165037
  54.0981598  40.4073222  68.2528998  54.2967683  39.6116462  67.1533487
  54.5334819  40.1778866  67.6419595  58.3405295  38.7204403  72.4757415
  57.9519728  38.2958620  71.8209606  57.6759993  38.9686552  72.9834442
  58.1852223  38.6943124  72.4545283  67.9828564  38.4779407  65.2505245
  67.7265129  37.6659349  65.0603128  68.8257878  38.4856975  65.0235432
  68.0694590  38.3591405  65.1890062  44.4188825  39.8921128  65.6309477
  44.5049077  39.5152996  66.4123007  45.0464623  39.5181574  65.1529436
  44.5245376  39.7806610  65.6754955  62.1631657  32.4179031  69.9881399
  62.5442168  31.7357203  70.3749274  61.3594941  32.1288634  69.8057064
  62.1008118  32.2746080  70.0185455  59.4444233  42.9503007  60.6734222
  60.2584872  43.2417900  60.5616993  59.3803375  42.2962870  60.0992515
  59.5546972  42.8968202  60.5723059  65.6653723  45.6329003  75.0863798
  65.4292361  44.8017068  74.9675858  66.3096952  45.5814611  75.6718642
  65.7248394  45.5026691  75.1549691  55.3152142  46.4224525  65.8006534
  55.9526089  46.1836272  66.3458328  55.7407213  46.6261684  65.0659695
  55.4728308  46.4175535  65.7723692  50.0064784  48.6612861  69.6840838
  50.0468929  48.9327712  68.8560618  50.5659308  49.1854769  70.0998626
  50.0948130  48.7788616  69.6232726  55.9554957  41.6426814  60.1381424
  56.3400109  41.4234521  60.8897969  55.7066577  42.4689760  60.2682500
  55.9757029  41.7324961  60.2682500  56.1223497  34.9233230  79.8544008
  55.8076938  35.6932792  79.5913571  55.8013430  34.3603486  79.2696235
  56.0282416  34.9543498  79.7285358  66.6890144  45.4173452  71.1492092
  66.3835961  46.1501509  71.5105408  65.9696360  45.0111382  70.8684878
  66.5377486  45.4655185  71.1605229  57.6973614  46.8996947  67.4800320
  57.7712622  46.7372119  68.3342170  58.5143120  47.0887137  67.2360802
  57.8289972  46.9033690  67.5698346  72.3891936  42.0566453  70.4760436
  72.3216437  42.0762412  69.6063023  72.3747599  42.8996780  70.7016107
  72.3770693  42.1840187  70.3812913  51.4579370  47.2454810  64.5094764
  50.6317488  47.4916547  64.3829043  51.5191361  47.1666891  65.3756822
  51.3453537  47.2699759  64.6183708  53.6755394  33.3123751  65.4690204
  52.8077819  33.3846351  65.5347813  53.9630598  34.1145830  65.6578179
  53.5895142  33.4417898  65.5064971  62.7988283  33.4601611  73.8001526
  63.5441875  33.2711421  73.3864951  62.3825587  33.9859848  73.2415382
  62.8473257  33.5103756  73.6566099  56.2378199  49.8631690  62.2113794
  56.5276498  49.4720672  61.4873020  56.9681680  50.0448395  62.6519069
  56.3885083  49.8325504  62.1696601  70.1750554  40.8310839  68.7507031
  70.7258475  40.1978908  68.9904123  70.1594669  41.3626232  69.4422535
  70.2535750  40.8159787  68.8885889  56.8272944  44.6649436  73.2966924
  56.3284638  45.3765204  73.3751813  57.6373169  44.9850103  73.2585087
  56.8729051  44.8176285  73.3023493  53.0901062  43.9272389  67.5429645
  52.8014311  43.3009861  68.0775373  53.9584410  43.8692677  67.6094326
  53.1761314  43.8259934  67.6320600  63.8778960  39.0707173  67.8611627
  63.5343726  38.3497508  68.2118877  63.9772002  38.8621024  67.0189985
  63.8421003  38.9331376  67.7883307  56.3452071  53.2128463  64.0604636
  56.9976129  52.6804905  64.2895662  55.6477679  52.8597115  64.4472510
  56.3382789  53.0817986  64.1516804  53.2933335  45.5667640  63.4672010
  54.0479303  45.9480679  63.6807473  52.7003948  46.0178784  63.9218707
  53.3170049  45.6896468  63.5654889  64.3391989  45.5332877  63.4035615
  64.9050022  46.1926087  63.3194158  63.6919892  45.8782575  63.8752017
  64.3270745  45.6814818  63.4608372  55.7540002  37.5230481  78.5929223
  54.9439778  37.8288260  78.4819065  56.2314689  38.2436063  78.7081807
  55.7043481  37.6745082  78.5936294  54.6131562  46.7376202  68.8412126
  54.0912316  46.8776493  69.5263990  55.0005582  45.9786866  69.0314243
  54.5935263  46.6461726  68.9713202  51.6022746  36.7882010  62.9107080
  51.3147542  36.4183281  62.1739028  52.2893214  37.2576866  62.6490785
  51.6611643  36.8028980  62.7622156  60.8098567  48.4771661  62.8272694
  60.5685243  47.7439522  62.4199759  60.9899900  49.0258518  62.1739028
  60.8006191  48.4494052  62.6702917  56.0397888  43.7680221  64.2393617
  55.8440670  44.3754955  63.6453920  56.2632233  43.0748165  63.7585291
  56.0432529  43.7557746  64.0809698  54.4376418  40.6534959  64.3574485
  55.1599070  40.8176117  63.8978291  53.9584410  41.3744623  64.2513825
  54.4740148  40.7833188  64.2740099  62.3969925  36.9898757  69.7371170
  61.5581026  37.0160036  69.5009433  62.4674293  37.6369493  70.3176517
  62.2838319  37.0894883  69.7880287  52.0884034  43.0593031  73.4628625
  52.6005131  43.3377284  72.8137385  51.8020377  43.7982325  73.8291438
  52.1218897  43.2095385  73.4218503  60.8439203  33.8884134  64.4698786
  61.5465556  33.6891883  63.9918744  60.5783392  33.1160077  64.7767629
  60.9085836  33.7447100  64.4444228  66.2727449  42.1966744  67.0232412
  66.1861424  42.3522170  67.8767191  65.8177929  42.8404820  66.6491817
  66.1930706  42.3142499  67.0939519  49.1750941  37.5663223  63.7592361
  49.2767077  38.3689384  64.0873337  49.9706827  37.3650559  63.4615442
  49.3078846  37.6549122  63.7627717  55.6067760  35.1519420  73.5229667
  55.4150957  35.1674554  74.3729090  56.4566356  35.3483094  73.4996321
  55.7043482  35.1833771  73.6452961  49.9914673  37.6810401  71.5013483
  49.8500165  36.8294342  71.6257991  50.2755236  37.7239062  70.6775689
  50.0122519  37.5610151  71.3981107  60.1453265  39.5177491  65.6457971
  59.8987979  39.4373242  66.4794760  60.4738388  38.7330959  65.4520499
  60.1574509  39.3903757  65.7405494  64.0401314  46.2260851  69.4344753
  63.9015673  46.9241896  69.9393495  63.2601312  46.0709507  69.0780934
  63.9044541  46.3061017  69.4571027  62.3779399  42.5257226  75.6867134
  62.3727438  41.6537043  75.6909561  63.0840393  42.7245395  75.2136590
  62.4824403  42.4261100  75.6174170  56.1050292  42.2534210  75.0580954
  56.2493668  42.8335418  74.4224064  56.4525941  42.6310507  75.7630809
  56.1777754  42.3954914  75.0679949  58.2770210  41.4524378  72.8406086
  57.5293524  41.6455393  72.4354364  58.4311735  40.6269598  72.6030207
  58.1892637  41.3589490  72.7451492  55.1778047  50.4436982  71.9241981
  55.3267611  49.8839898  71.2715386  55.9578049  50.5228983  72.3074500
  55.3152141  50.3722547  71.8838930  65.5354687  45.5839104  60.1961252
  65.1561496  44.7976242  60.1890541  64.8720932  46.1325961  60.0532896
  65.3813162  45.5483928  60.1742049  57.7031348  50.6151625  73.2026472
  57.6275019  49.9460435  73.7577260  57.6321207  51.3169413  73.7167138
  57.6811955  50.6196532  73.3603320  58.5171987  35.3474929  73.7301490
  58.9744601  36.0798903  73.8574282  58.5928316  34.9241394  74.4888745
  58.5962957  35.3932167  73.8602566  50.7604978  35.5940749  74.8190933
  50.2247167  34.9821107  75.1351701  50.8222743  36.1688885  75.4724600
  50.6900611  35.5887676  74.9626360  62.9899313  28.5264804  67.5995333
  63.1082881  28.9841268  66.8662635  62.8161488  27.7210065  67.3131550
  62.9818484  28.4758576  67.4496266  58.3601595  49.1352623  64.0350078
  59.1251486  48.8662267  63.7132742  58.2579685  48.6502634  64.7520141
  58.4583090  49.0242188  64.0929906  56.3954365  37.3377033  70.5743314
  55.6050439  37.1568493  70.8960650  56.7914988  36.5603985  70.5573608
  56.3371241  37.1964494  70.6195862  60.8820255  46.1664807  56.0150027
  61.6493241  46.2264932  55.6055879  60.4351564  45.5945249  55.5306346
  60.9293683  46.0901383  55.8827738  61.7798051  44.9719463  68.3002760
  61.1043053  44.7404695  68.8016147  61.7890427  44.3640646  67.6744865
  61.6816556  44.8478388  68.2818912  58.9092195  39.8137292  75.0566813
  58.8451336  40.6747249  74.9286949  59.0489383  39.4969285  74.2562364
  58.9207665  39.8937459  74.9195025  63.7814786  47.8284595  60.5312938
  63.8634623  48.6351582  60.2074388  64.2664528  47.8480555  61.2553711
  63.8651943  47.9505258  60.5899836  57.5911289  42.5069431  69.1983016
  57.1673538  42.7073930  68.4622034  57.4156144  41.6598279  69.3107315
  57.5022169  42.4118213  69.1056706  57.0922982  54.0219944  71.6604473
  57.5818913  53.3230734  71.4780137  56.5207215  53.7243814  72.2480530
  57.0807512  53.8746168  71.7205514  52.8793734  43.0021483  64.6310988
  53.0358353  42.9368286  65.4866980  53.2194327  43.7770035  64.4189668
  52.9526969  43.1070681  64.7265582  59.4172878  42.3779366  63.5004351
  59.9588424  41.8749748  63.9642972  59.7319437  42.3244561  62.6893837
  59.5437276  42.2958787  63.4488163  57.5859328  47.7696718  60.7844379
  57.6552148  46.9111256  60.9237380  58.3647783  47.9868599  60.4563404
  57.7112178  47.6749582  60.7561537  60.5662148  37.2715671  73.5526652
  60.7804117  36.6326585  72.9990006  59.9496047  37.7161495  73.1234513
  60.5067477  37.2425815  73.4077083  61.9766816  50.1934419  64.9980873
  61.5846607  49.8901134  64.2803739  62.1319888  51.0303509  64.8085826
  61.9420406  50.2718256  64.8637370  49.4527995  40.1856433  64.9471755
  49.8326960  40.6040978  64.2832023  48.8783360  40.7669889  65.2540599
  49.4239320  40.3334292  64.8948496  62.7301236  38.8804736  74.4909959
  61.9177918  38.5730626  74.5723132  63.1891170  38.4003736  75.0552671
  62.6781621  38.7641228  74.5864553  62.1406490  46.7584408  64.9386903
  61.7821145  46.9299051  65.7150936  61.6545201  47.2197614  64.3814902
  62.0165187  46.8523379  64.9712172  59.9576876  30.3815607  68.5413995
  59.0870434  30.3554328  68.4947304  60.2117218  30.2092799  67.7239840
  59.8670437  30.3525750  68.4134131  59.8254743  40.2864808  79.2738661
  60.2954374  40.9106924  79.6606535  59.8716624  39.6181783  79.8331876
  59.9022619  40.2799488  79.4138733  56.9826017  32.3921835  69.9987465
  56.4664506  31.7002026  70.1239044  56.4219946  33.0592612  69.9450064
  56.8232530  32.3885093  70.0093531  59.0518250  32.9314795  71.8280317
  58.6650004  32.9563827  72.6093847  58.5651188  32.3656474  71.3754834
  58.9230759  32.8510546  71.8768221  63.3011230  47.6488304  75.8854104
  63.9390950  47.1548500  75.5516560  62.6585321  47.5765705  75.3006331
  63.3005456  47.5647313  75.7496459  65.0268230  39.4977450  70.4520020
  64.5995838  39.4103799  69.6968119  64.3894283  39.6055226  71.0374864
  64.8697837  39.5010110  70.4265461  58.7175392  29.8181781  74.1190577
  59.3468510  30.3542081  73.8411648  58.8861255  29.7259139  74.9704143
  58.8353187  29.8843143  74.2039106  58.5189307  34.6052975  76.3916989
  59.3462736  34.3338124  76.4475603  58.5397153  35.4013817  76.7480807
  58.6442157  34.6832729  76.4532172  63.3565486  48.3408112  72.5259461
  64.1457865  47.9897177  72.6461542  63.5309084  49.1544501  72.2636095
  63.4985768  48.4093969  72.5047329  53.0958797  41.7516838  69.5787250
  52.2546803  41.6520712  69.7866143  53.3048805  42.5212318  69.9301570
  53.0023489  41.8508881  69.6614565  50.5734364  39.3736375  67.4072000
  50.1791062  39.4479387  66.6322110  50.0174481  39.7594321  67.9580362
  50.4337176  39.4418150  67.3739660  62.2099311  32.3517669  67.0875879
  62.4148904  32.2839977  67.9332876  61.8825735  33.1576490  67.0197057
  62.1914559  32.4603609  67.2035534  56.9075462  39.6798237  68.8284847
  56.6038599  39.1254226  69.4295255  56.2054882  39.8590447  68.3412881
  56.7591672  39.6243020  68.8454553  55.9641559  36.9898757  63.3929549
  56.2401293  36.2717670  62.9807117  56.5640228  37.5883677  63.1850655
  56.0934823  36.9719128  63.3010310  54.9693813  46.8947958  73.5356945
  54.8614168  46.9050020  74.4019003  55.1789594  47.7202738  73.3461899
  54.9843924  47.0189033  73.6361037  65.4632998  32.9049433  66.5678645
  64.8507312  33.3919835  66.9532377  65.5597173  32.2292924  67.1116296
  65.3870896  32.8767742  66.7057503  59.4652079  34.6612274  61.6676144
  59.9195826  34.8322835  62.3923989  59.9392125  34.0480385  61.2673920
  59.6020399  34.5963160  61.7149906  52.9867605  44.1460600  70.9978883
  52.3955538  44.7870099  70.9681898  53.7488628  44.5698218  70.9710182
  53.0115865  44.3036439  70.9894030  53.3828228  35.3062598  71.6646900
  53.8429709  35.3801528  72.4022024  53.4284334  36.1043852  71.3146722
  53.4578783  35.4356745  71.7219657  55.0311577  35.9729293  76.2318927
  54.6397142  35.3262640  76.6674705  55.1997440  36.5640728  76.8513183
  54.9982488  35.9643561  76.3881633  69.1058026  43.9766370  71.9956161
  69.1641150  44.4253019  72.7416137  68.4724494  44.3865183  71.5586241
  69.0209321  44.1040105  72.0408709  62.7457121  49.5969912  68.4310907
  62.5476810  50.0860726  67.7367118  62.1244832  49.8011153  69.0095040
  62.6244685  49.6986450  68.4134130  56.8065099  41.3654809  62.7721151
  57.5507144  41.7529085  63.0104101  56.9525795  40.5212234  62.9361639
  56.9375684  41.2985282  62.8315121  58.7244675  33.1605068  67.8053013
  57.8780720  33.3327875  67.6794363  58.7215807  32.3554411  68.1418841
  58.5991825  33.0666097  67.8364140  59.7942975  36.9380282  68.6715071
  59.3202929  36.4122044  69.1820382  60.1661111  36.3909755  68.1029932
  59.7792864  36.7796279  68.6630218  50.1716005  38.9351789  74.0398616
  51.0341618  38.8347498  73.9535946  49.8407788  38.3546498  73.4784189
  50.2501202  38.8343416  73.9444022  66.0579706  41.9982658  70.0821851
  65.8177929  41.1589073  70.0864278  66.5371713  42.0782824  70.8062625
  66.0931889  41.8864057  70.1896653  61.7226475  37.8316837  61.7340824
  61.1949493  37.9145581  61.0446533  62.1822183  38.5734708  61.7305469
  61.7128325  37.9537499  61.6315520  68.0584893  38.7784115  68.0351110
  67.8194663  38.7379949  67.1971895  68.2218794  39.6255267  68.1616831
  68.0475196  38.8976200  67.9304592  64.6630923  43.1634064  73.9656155
  65.3865122  42.7106591  73.7867175  64.3980885  43.4438730  73.1828483
  64.7312196  43.1385033  73.8234871  53.5317791  37.7594238  70.7009035
  52.9070861  37.7712630  70.0934987  53.1963386  38.2354413  71.3500275
  53.3903283  37.8312755  70.7065603  53.7159540  36.1019356  56.7581720
  53.3672344  36.7539081  57.2213269  53.2355986  36.0876469  56.0305591
  53.5929784  36.1962410  56.7192811  50.2443467  45.8194698  72.1412799
  49.7143391  45.1287137  72.1907774  50.5168560  45.8104883  71.3125507
  50.2068189  45.7161830  72.0260215  61.2763557  46.4020400  60.8650481
  61.9997756  46.8678513  60.7215055  60.8364148  46.4694010  60.1148078
  61.3179250  46.4804237  60.7335263  60.4449712  43.2617942  72.1151170
  59.8306706  42.7175993  72.4099806  60.9616997  42.7482179  71.6356987
  60.4305375  43.1054352  72.0875399  59.6846010  44.3322213  69.8495469
  59.2573618  43.7071931  69.4160904  59.6770954  44.0497134  70.6754476
  59.6205151  44.1974993  69.9075297  52.8008537  39.3687386  72.9183903
  52.9602023  38.6130710  73.3235625  52.6201430  39.9178325  73.5724641
  52.7973896  39.3381199  73.0746609  60.7428840  31.5348621  73.4734693
  60.2469401  31.7312295  72.7826259  61.4997902  31.9341289  73.3023494
  60.7815664  31.6226355  73.3454829  58.0131719  35.2090967  70.0638003
  58.0374206  34.6751079  69.3750783  58.2643193  34.7008276  70.7263594
  58.0541638  35.0551871  70.0602648  45.5239309  42.4922462  69.4981147
  45.4182758  42.4469306  68.6333231  44.7739529  42.8376243  69.7795432
  45.3974912  42.5363370  69.4118477  54.2933041  33.9361785  69.4443747
  54.3331413  34.4370992  70.1578455  53.4682706  34.0272179  69.1749670
  54.1772567  34.0243602  69.5094286  56.4762654  43.5022525  77.5464042
  55.6258285  43.6394240  77.6821687  56.6390782  42.7686304  77.9911744
  56.3746518  43.4136626  77.6319641  55.7147405  40.4522295  71.7417646
  54.8839335  40.6196113  71.5352895  55.6598922  40.0758246  72.5266532
  55.5836820  40.4212026  71.8266175  53.5231188  33.9431188  77.3774057
  54.1483892  33.3993321  77.6503489  53.0681668  33.4626106  76.8081847
  53.5479449  33.7920669  77.3335651  54.0883449  38.7277887  62.2707764
  54.2286410  39.2250351  62.9736405  54.5865982  38.0264181  62.4121978
  54.1824530  38.6979865  62.3959343  54.1183671  39.5944998  59.6000341
  54.7528751  40.1905423  59.5349803  54.2009282  39.2948455  60.4146211
  54.2240222  39.6385906  59.7103427  67.0966237  42.1260475  72.4686705
  67.6884077  42.7657726  72.5004903  67.5325231  41.4283512  72.7578772
  67.2484668  42.1178825  72.5167538  55.6962654  35.5258973  59.5745783
  56.0178495  35.0462056  58.9205045  55.9589598  36.3358619  59.3836595
  55.7828679  35.5748871  59.4501275  58.9259627  46.5477847  73.0944599
  58.4184718  47.1013694  73.5385230  58.6286273  46.6086137  72.2763374
  58.8064512  46.6384159  73.0393056  61.0921809  34.9131167  71.9369262
  61.5176880  34.4603693  71.3252788  60.4778802  34.3591238  72.2134049
  61.0650454  34.7645143  71.8874287  50.6236659  41.7912838  62.8689887
  51.1328888  42.3877346  63.2501192  51.0970931  41.5238812  62.1866307
  50.7680035  41.8398654  62.8244410  61.5367407  50.4641105  61.0248543
  60.8196717  50.2901967  60.5595780  62.1874145  50.2293677  60.4924029
  61.5269258  50.4036898  60.8777760  59.5316032  31.3846267  65.3459839
  58.8884350  31.2343913  65.9144977  59.1915439  31.1388612  64.5808944
  59.3861109  31.3258389  65.3162854  64.1215378  39.3405694  64.7689848
  63.4506568  39.8835396  64.6402913  64.8155129  39.8100549  64.5271542
  64.1244246  39.4903965  64.7145375  58.1702112  51.4802406  70.0001606
  57.9467766  50.7221235  70.3685632  57.6811955  51.5100427  69.2782046
  58.0645561  51.3724630  69.9478347  64.2843506  35.7961577  67.6780221
  64.6371116  35.3691300  68.3526020  63.4258307  35.7112421  67.8081297
  64.2092950  35.7206318  67.7975231  52.9827191  38.4269097  65.7363067
  52.2639180  38.8433230  66.0035931  53.3539553  38.9923336  65.1854706
  52.9319122  38.5718378  65.6945874  62.2826772  39.0596946  71.6265063
  62.2624699  38.8780241  72.4799842  62.3305972  39.9308964  71.6024647
  62.2861413  39.1613484  71.7488358  60.2273101  45.6484138  77.5513540
  60.1868956  45.0033815  76.9658696  61.0396420  45.5920755  77.8638952
  60.3416255  45.5443105  77.5110489  56.8180569  51.7002864  67.4538691
  56.4040968  51.0376994  67.0642532  57.5027943  51.8480723  66.9334385
  56.8578941  51.6243522  67.3195188  60.1845863  50.8592949  68.2062307
  59.7862146  50.9695219  67.4383127  59.5697083  51.0675015  68.7888867
  60.0344752  50.9066517  68.1793606  58.7573765  37.4667097  61.0736447
  58.1638604  37.7884093  60.5221014  58.7949043  36.6208192  60.8657553
  58.6748154  37.3891425  60.9619218  65.7167566  30.9179989  68.6064533
  65.2098430  30.2109129  68.5385711  66.5135000  30.5873178  68.7365610
  65.7594805  30.7653141  68.6163528  61.6331582  37.4246601  64.5038197
  61.4045275  37.4479303  63.6616555  61.8929658  36.6004068  64.6233208
  61.6377770  37.3062681  64.3963395  55.9150810  39.2781074  74.1063297
  55.4029713  38.6702257  74.4648329  55.7430306  39.9937667  74.5737273
  55.8140447  39.2944374  74.2279521  50.7616525  37.7218650  76.7565659
  50.5919115  38.3820025  76.2113866  50.3182475  37.9325211  77.4778148
  50.6715858  37.8504632  76.7827289  54.6876344  35.9623148  65.7992393
  55.1633710  36.3240228  65.1642574  54.1864944  36.6179615  66.0792535
  54.6841703  36.1117336  65.7469134  67.9187706  45.4344916  61.5905398
  68.3021312  46.1836272  61.8203495  67.1231819  45.6810735  61.3317387
  67.8581488  45.5814610  61.5862971  59.7919880  37.2005319  76.5465553
  60.3491311  36.9719129  75.9144018  59.4680945  37.9610985  76.2700765
  59.8266291  37.2789156  76.4122050  47.6618589  40.6265515  72.0154149
  47.1145309  39.9566161  72.1335017  48.4510967  40.2595363  72.0797616
  47.6970773  40.4730502  72.0422849  57.5102998  40.2872972  77.5117560
  58.2614325  40.6024649  77.8257114  57.7025574  40.0852143  76.6851482
  57.6494412  40.3040354  77.4360956  56.7302997  38.1064347  59.1665777
  57.1101962  38.1243977  58.3816891  55.9895593  38.5518336  59.0456624
  56.6771835  38.1746122  59.0329345  64.3588288  36.4146539  64.7541355
  64.3582514  36.2595195  65.6125632  64.1544468  37.2609526  64.6982741
  64.3288066  36.5167159  64.8729295  46.4205559  39.8386323  69.1700172
  46.2427320  39.3862932  69.8955088  46.1324581  40.6412485  69.3538649
  46.3518512  39.8908881  69.3043675  62.0829140  41.0944040  68.4077562
  62.5782805  40.3767036  68.3681583  61.2728916  40.7914838  68.2932049
  62.0373033  40.9441687  68.3851288  57.5287751  44.9441854  60.5574567
  56.7199074  44.6208527  60.5107876  58.0362660  44.2375076  60.4902815
  57.4837418  44.7923170  60.5404861  48.1578029  42.3714047  66.2821931
  47.2923548  42.3599737  66.1704702  48.2576845  42.1844270  67.1293070
  48.0452196  42.3420108  66.3910875  64.1480959  43.8447728  71.0954691
  64.5736030  43.3222150  70.5425116  63.7837879  44.4428565  70.5743314
  64.1567561  43.8557955  70.9363701  53.7835039  52.1411946  69.8552037
  54.0981598  52.9548334  69.8629818  54.1928452  51.7562164  70.5234196
  53.8903137  52.2040648  69.9556128  60.7359558  47.5581992  67.4255848
  61.2070736  48.2722255  67.5945834  61.0719737  46.9580742  67.9615718
  60.8554673  47.5753457  67.5288224  57.6529053  32.3309463  74.3813943
  57.7856959  31.5340456  74.7094919  58.0374206  32.8575866  74.9612219
  57.7285382  32.2909380  74.5157446  61.3733505  47.3499926  74.1883541
  60.8254451  46.7257810  73.9203606  61.8346533  47.5394198  73.4727621
  61.3600714  47.2858977  74.0433972  60.7261408  29.2539789  70.9795037
  59.9207372  29.1437519  71.2962875  60.5968144  29.3552245  70.1224902
  60.5881541  29.2523459  70.9003077  64.1827369  35.4185281  71.5734733
  63.5990358  35.9194487  71.1612301  64.5031663  34.9114837  70.9399057
  64.1440544  35.4177116  71.4193241  56.7222168  34.3325876  61.8493408
  57.5437862  34.5024189  61.6075103  56.2591819  34.4873137  61.1259706
  56.7753330  34.3807609  61.7065053  55.3117500  32.3268638  72.6291837
  55.8561913  31.9859765  73.2196179  55.3654436  33.1854099  72.7713122
  55.4006619  32.4023897  72.7373710  51.1248059  46.0885054  69.5030645
  51.7292916  46.0480888  68.8744466  50.9175371  46.9356206  69.5334701
  51.1836956  46.2073056  69.4146761  60.9391831  48.3550999  70.7192882
  61.7590205  48.2113965  70.9809177  60.6585908  48.9797198  71.2609320
  61.0188574  48.4261351  70.8380822  46.3599341  45.0719671  69.3729568
  46.2623619  44.2615943  69.6819625  47.1428211  45.0511465  68.9875836
  46.4615477  44.9486762  69.3616431  77.4105481  56.0115851  63.6835759
  77.3799486  56.8660488  63.8554028  78.0086830  55.7111143  64.2421902
  77.4942639  56.0932347  63.7910561  70.6105166  55.0991502  68.4388689
  69.7543062  55.2600000  68.4897806  70.6572820  54.2283566  68.4593750
  70.4904278  54.9942304  68.4494755  64.9946306  64.6354220  64.2025921
  64.2429205  64.2569758  63.9741966  65.4432317  64.6672653  63.4544731
  64.9495973  64.5839827  64.0583423  70.4471266  65.0579589  59.6311468
  70.1122634  65.7356511  59.1955690  70.9598136  64.6684900  59.0428339
  70.4736847  65.1004167  59.4798259  69.9875557  67.0093858  65.5722579
  70.3714936  67.5780757  65.0327355  69.9234698  66.2843368  65.0928395
  70.0348984  66.9869321  65.4216442  66.5731062  64.6472612  66.4688693
  66.6741425  63.8372966  66.7785821  65.9772807  64.5529558  65.8388372
  66.5003601  64.5137640  66.4214932  75.2322056  58.5868153  61.9554069
  75.1161582  59.3375839  62.3846207  76.0277942  58.3292106  62.2050156
  75.3326645  58.6603000  62.0558160  59.7696106  60.6692898  66.0941027
  59.5346291  59.8360551  65.9873296  59.9081747  60.9497564  65.2802228
  59.7551769  60.5876402  65.9583382  62.0686194  52.8378629  68.9925335
  61.4491225  52.2471276  68.8235349  61.9670057  53.4290064  68.3589658
  61.9623869  52.8382712  68.8730324  67.1152381  62.5762176  63.2423411
  67.4368222  63.1167383  62.6384719  67.7624478  62.0058947  63.3745701
  67.2578436  62.5721351  63.1730446  69.1654089  54.5778171  63.3257798
  69.8634254  54.7566298  63.8179261  69.4806422  54.0548510  62.7028187
  69.3149427  54.5271943  63.3059808  61.7955327  56.3830911  71.2368903
  61.6714024  56.9693356  71.8718722  62.4473611  55.8891106  71.5381178
  61.8728976  56.3969715  71.3754833  69.3542025  60.9648616  63.3137589
  69.7935660  60.3565716  63.7592362  69.2046688  60.5855989  62.5423054
  69.3963490  60.8187087  63.2656756  66.8213668  59.5592628  70.5156415
  67.4662670  59.0665071  70.1967363  67.0615445  59.7017414  71.3422493
  66.9524253  59.5070070  70.5905948  67.3380953  49.9470567  67.4079072
  67.0084283  50.3981711  66.7382771  66.6625955  49.8686731  67.9552079
  67.1891389  50.0021703  67.3902296  72.9551361  59.3175797  60.2668358
  72.8702656  60.1736764  60.4117927  73.4435744  59.0420121  60.9350517
  73.0140259  59.4033119  60.3870440  74.5457361  45.9356090  65.6528683
  74.2310802  46.6259569  66.0849105  74.0284302  45.8800873  64.9514184
  74.4221831  46.0290979  65.6125632  73.8869794  55.9360591  61.7666093
  73.3581266  56.1520225  62.4263400  74.4094814  56.6296730  61.6867063
  73.8858247  56.0703728  61.8521693  65.7769402  59.8323808  60.5673561
  65.1926618  60.3373839  60.9739425  65.3739497  59.6066195  59.8270153
  65.6308706  59.8732056  60.5178587  61.3313431  65.5478569  67.3697233
  60.8481009  66.2729059  67.3456817  62.1436749  65.8454699  67.4807391
  61.3804179  65.6980923  67.3824512  70.2346617  56.0789460  59.0442482
  70.4742620  56.2867444  58.2317825  70.5562458  55.2746969  59.1531427
  70.3183775  55.9903561  58.9403035  65.5436907  48.0082856  62.8902020
  66.2982875  48.3761173  62.6519070  65.3664442  48.3822410  63.6581200
  65.6291385  48.1181044  62.9686908  64.1857628  66.0634745  67.5217513
  64.8878207  65.5486734  67.5790269  64.1055111  66.3908896  68.3264388
  64.2781389  66.0348971  67.6490305  63.8993972  50.4153175  59.5880133
  63.7169545  50.6325056  58.7621126  64.7619585  50.5292188  59.6438747
  63.9998561  50.4643073  59.4734620  63.5108404  62.2541097  67.0303121
  64.3497303  62.4864030  67.0776882  63.5420173  61.3845409  66.9610156
  63.6390121  62.1598044  67.0267766  69.5793691  47.4179586  62.6229157
  70.3079851  47.2395541  62.1767313  69.6688584  48.2597665  62.8336335
  69.7000353  47.5163464  62.5882674  73.5601992  58.3532973  66.5261451
  74.3159507  58.7864487  66.5650359  73.6664316  57.7037743  67.0996087
  73.6872162  58.3210457  66.6159476  59.5398252  58.8942263  71.4850848
  59.2736667  58.0781380  71.6441838  59.5536816  58.9395419  70.6146363
  59.5022974  58.7799168  71.3804330  76.5179646  49.2220078  69.5193282
  77.1605554  49.2918183  70.1055197  76.7702666  48.5549301  69.0172824
  76.6501778  49.1346427  69.5320561  63.4455999  53.6927348  58.1002606
  62.7314176  53.4065527  58.5125039  63.9299967  54.0323973  58.7408993
  63.4115362  53.7008997  58.2558241  64.2896858  52.4320641  74.1317856
  63.5968655  51.9617621  74.3778587  64.9057185  52.2058946  74.7059563
  64.2781388  52.3287773  74.2527008  79.7326509  58.8987170  66.1683491
  80.3942943  58.3377839  66.0679399  79.0917921  58.4039201  66.4936182
  79.7355376  58.7423579  66.2015831  70.6203317  62.1957301  58.4764414
  71.0354465  61.8642325  57.7848910  69.7895246  61.9626204  58.3484551
  70.5591325  62.1128557  58.3555262  59.9491665  59.6801043  68.7662592
  59.7667239  59.6547929  67.9134884  60.6841334  60.1499980  68.8051501
  60.0305729  59.7462405  68.6460511  76.0191340  59.9152552  65.9095480
  76.2546929  60.0597751  65.0822330  76.1680903  60.6794960  66.3026993
  76.0757143  60.0491607  65.8459084  77.8481796  58.7554218  63.7465084
  78.1790013  59.2881859  63.1405178  78.4214884  58.8093106  64.4027035
  77.9815475  58.8423787  63.7542865  73.0613685  56.6019121  64.4288664
  73.1560540  57.3408415  64.8828289  72.4372529  56.1736597  64.8623228
  72.9822715  56.6480442  64.5596811  59.9162576  56.5594543  68.9161659
  60.4936078  56.4230994  69.5553904  59.2176637  56.1030327  69.1707243
  59.8983597  56.4716809  69.0483948  73.3136707  58.4467861  57.6625616
  73.2316869  58.5170048  58.5280603  73.9516427  59.0097605  57.4709356
  73.3956544  58.5406832  57.7615565  66.6729878  58.2128599  67.1300142
  66.4149122  57.3800334  67.1031441  66.7278361  58.4386212  66.2892642
  66.6429656  58.1226370  67.0020279  71.7530928  50.3157050  67.2304235
  71.0487255  49.8266235  67.3888154  71.8015902  50.3279524  66.3592679
  71.6560980  50.2446698  67.1243574  65.6464590  55.7666361  67.6165037
  65.0714181  55.9258530  68.2528998  65.2700266  55.1301770  67.1533487
  65.5067402  55.6964174  67.6419595  69.3137879  54.2389711  72.4757415
  68.9252311  53.8143928  71.8209606  68.6492577  54.4871860  72.9834442
  69.1584806  54.2128432  72.4545283  78.9561148  53.9964715  65.2505245
  78.6997713  53.1844657  65.0603128  79.7990462  54.0042282  65.0235432
  79.0427173  53.8776713  65.1890062  55.3921409  55.4106436  65.6309477
  55.4781661  55.0338304  66.4123007  56.0197206  55.0366882  65.1529436
  55.4977960  55.2991918  65.6754955  73.1364240  47.9364339  69.9881399
  73.5174752  47.2542510  70.3749274  72.3327524  47.6473941  69.8057064
  73.0740702  47.7931388  70.0185455  70.4176817  58.4688315  60.6734222
  71.2317456  58.7603208  60.5616993  70.3535958  57.8148178  60.0992515
  70.5279556  58.4153510  60.5723059  66.2884725  61.9409833  65.8006534
  66.9258672  61.7021580  66.3458328  66.7139797  62.1446992  65.0659695
  66.4460891  61.9360843  65.7723692  60.9797368  64.1798169  69.6840838
  61.0201513  64.4513020  68.8560618  61.5391892  64.7040077  70.0998626
  61.0680713  64.2973924  69.6232726  66.9287540  57.1612122  60.1381424
  67.3132693  56.9419829  60.8897969  66.6799161  57.9875068  60.2682500
  66.9489613  57.2510269  60.2682500  68.6706197  62.4182255  67.4800320
  68.7445205  62.2557427  68.3342170  69.4875703  62.6072445  67.2360802
  68.8022556  62.4218998  67.5698346  62.4311954  62.7640118  64.5094764
  61.6050071  63.0101855  64.3829043  62.4923945  62.6852199  65.3756822
  62.3186121  62.7885067  64.6183708  64.6487978  48.8309059  65.4690204
  63.7810403  48.9031659  65.5347813  64.9363182  49.6331138  65.6578179
  64.5627726  48.9603206  65.5064971  73.7720866  48.9786918  73.8001526
  74.5174458  48.7896729  73.3864951  73.3558171  49.5045156  73.2415382
  73.8205841  49.0289064  73.6566099  67.2110783  65.3816998  62.2113794
  67.5009081  64.9905980  61.4873020  67.9414264  65.5633703  62.6519069
  67.3617667  65.3510812  62.1696601  65.1516698  67.3584381  65.2773944
  64.9316994  67.0681735  66.0700611  64.9311220  66.6999336  64.7491856
  65.0864293  67.2184089  65.3162852  64.0633646  59.4457697  67.5429645
  63.7746894  58.8195168  68.0775373  64.9316994  59.3877985  67.6094326
  64.1493898  59.3445241  67.6320600  74.8511543  54.5892481  67.8611627
  74.5076309  53.8682816  68.2118877  74.9504586  54.3806332  67.0189985
  74.8153586  54.4516684  67.7883307  67.3184654  68.7313771  64.0604636
  67.9708712  68.1990213  64.2895662  66.6210263  68.3782423  64.4472510
  67.3115372  68.6003294  64.1516804  64.2665919  61.0852948  63.4672010
  65.0211887  61.4665987  63.6807473  63.6736532  61.5364092  63.9218707
  64.2902633  61.2081776  63.5654889  75.3124572  61.0518185  63.4035615
  75.8782605  61.7111395  63.3194158  74.6652476  61.3967883  63.8752017
  75.3003329  61.2000126  63.4608372  65.5864146  62.2561510  68.8412126
  65.0644899  62.3961801  69.5263990  65.9738166  61.4972174  69.0314243
  65.5667847  62.1647033  68.9713202  62.5755330  52.3067318  62.9107080
  62.2880125  51.9368589  62.1739028  63.2625798  52.7762174  62.6490785
  62.6344227  52.3214288  62.7622156  71.7831151  63.9956969  62.8272694
  71.5417826  63.2624830  62.4199759  71.9632483  64.5443826  62.1739028
  71.7738775  63.9679360  62.6702917  67.0130471  59.2865529  64.2393617
  66.8173254  59.8940263  63.6453920  67.2364817  58.5933473  63.7585291
  67.0165112  59.2743054  64.0809698  65.4109001  56.1720267  64.3574485
  66.1331653  56.3361425  63.8978291  64.9316994  56.8929931  64.2513825
  65.4472732  56.3018496  64.2740099  73.3702509  52.5084065  69.7371170
  72.5313609  52.5345344  69.5009433  73.4406876  53.1554801  70.3176517
  73.2570902  52.6080191  69.7880287  71.8171787  49.4069442  64.4698786
  72.5198140  49.2077191  63.9918744  71.5515976  48.6345385  64.7767629
  71.8818419  49.2632408  64.4444228  77.2460033  57.7152052  67.0232412
  77.1594007  57.8707478  67.8767191  76.7910513  58.3590128  66.6491817
  77.1663289  57.8327807  67.0939519  60.1483524  53.0848531  63.7592361
  60.2499661  53.8874692  64.0873337  60.9439411  52.8835867  63.4615442
  60.2811430  53.1734430  63.7627717  66.5800343  50.6704728  73.5229667
  66.3883540  50.6859862  74.3729090  67.4298939  50.8668402  73.4996321
  66.6776065  50.7019079  73.6452961  60.9647256  53.1995709  71.5013483
  60.8232748  52.3479650  71.6257991  61.2487820  53.2424370  70.6775689
  60.9855102  53.0795459  71.3981107  71.1185849  55.0362799  65.6457971
  70.8720563  54.9558550  66.4794760  71.4470972  54.2516267  65.4520499
  71.1307092  54.9089065  65.7405494  76.5087270  61.1024412  60.1961252
  76.1294079  60.3161550  60.1890541  75.8453516  61.6511269  60.0532896
  76.3545745  61.0669236  60.1742049  69.4904570  50.8660237  73.7301490
  69.9477184  51.5984211  73.8574282  69.5660899  50.4426702  74.4888745
  69.5695540  50.9117475  73.8602566  61.7337562  51.1126057  74.8190933
  61.1979751  50.5006415  75.1351701  61.7955326  51.6874193  75.4724600
  61.6633194  51.1072984  74.9626360  73.9631896  44.0450112  67.5995333
  74.0815464  44.5026575  66.8662635  73.7894072  43.2395373  67.3131550
  73.9551067  43.9943884  67.4496266  69.3334179  64.6537931  64.0350078
  70.0984070  64.3847575  63.7132742  69.2312268  64.1687942  64.7520141
  69.4315674  64.5427496  64.0929906  67.3686948  52.8562341  70.5743314
  66.5783023  52.6753801  70.8960650  67.7647571  52.0789293  70.5573608
  67.3103824  52.7149802  70.6195862  71.8552839  61.6850115  56.0150027
  72.6225824  61.7450240  55.6055879  71.4084148  61.1130557  55.5306346
  71.9026266  61.6086691  55.8827738  72.7530635  60.4904771  68.3002760
  72.0775636  60.2590003  68.8016147  72.7623011  59.8825954  67.6744865
  72.6549139  60.3663696  68.2818912  74.7547369  63.3469903  60.5312938
  74.8367207  64.1536890  60.2074388  75.2397111  63.3665863  61.2553711
  74.8384527  63.4690566  60.5899836  68.5643872  58.0254739  69.1983016
  68.1406122  58.2259238  68.4622034  68.3888728  57.1783587  69.3107315
  68.4754753  57.9303521  69.1056706  63.8526317  58.5206791  64.6310988
  64.0090937  58.4553594  65.4866980  64.1926911  59.2955343  64.4189668
  63.9259552  58.6255989  64.7265582  70.3905462  57.8964674  63.5004351
  70.9321007  57.3935055  63.9642972  70.7052021  57.8429869  62.6893837
  70.5169859  57.8144095  63.4488163  68.5591912  63.2882026  60.7844379
  68.6284732  62.4296564  60.9237380  69.3380367  63.5053907  60.4563404
  68.6844762  63.1934890  60.7561537  71.5394731  52.7900979  73.5526652
  71.7536701  52.1511893  72.9990006  70.9228631  53.2346803  73.1234513
  71.4800061  52.7611123  73.4077083  72.9499399  65.7119727  64.9980873
  72.5579191  65.4086442  64.2803739  73.1052472  66.5488817  64.8085826
  72.9152989  65.7903564  64.8637370  60.4260579  55.7041741  64.9471755
  60.8059544  56.1226286  64.2832023  59.8515944  56.2855197  65.2540599
  60.3971904  55.8519600  64.8948496  73.1139074  62.2769716  64.9386903
  72.7553729  62.4484359  65.7150936  72.6277785  62.7382922  64.3814902
  72.9897771  62.3708687  64.9712172  70.9309460  45.9000915  68.5413995
  70.0603018  45.8739636  68.4947304  71.1849801  45.7278107  67.7239840
  70.8403020  45.8711058  68.4134131  67.9027439  57.9568881  57.4787138
  68.1919964  58.7333764  57.7530712  67.9899238  57.4457613  58.1801637
  67.9581696  57.9960800  57.6229635  67.9558601  47.9107143  69.9987465
  67.4397089  47.2187334  70.1239044  67.3952529  48.5777920  69.9450064
  67.7965114  47.9070401  70.0093531  70.0250834  48.4500103  71.8280317
  69.6382587  48.4749134  72.6093847  69.5383771  47.8841782  71.3754834
  69.8963343  48.3695854  71.8768221  69.6907976  45.3367088  74.1190577
  70.3201094  45.8727389  73.8411648  69.8593838  45.2444447  74.9704143
  69.8085770  45.4028451  74.2039106  64.0691380  57.2702146  69.5787250
  63.2279387  57.1706020  69.7866143  64.2781388  58.0397626  69.9301570
  63.9756073  57.3694189  69.6614565  61.5466947  54.8921683  67.4072000
  61.1523645  54.9664695  66.6322110  60.9907064  55.2779629  67.9580362
  61.4069760  54.9603458  67.3739660  73.1831894  47.8702977  67.0875879
  73.3881488  47.8025285  67.9332876  72.8558318  48.6761798  67.0197057
  73.1647142  47.9788917  67.2035534  67.8808045  55.1983545  68.8284847
  67.5771183  54.6439533  69.4295255  67.1787466  55.3775755  68.3412881
  67.7324255  55.1428328  68.8454553  66.9374142  52.5084065  63.3929549
  67.2133877  51.7902978  62.9807117  67.5372812  53.1068985  63.1850655
  67.0667407  52.4904436  63.3010310  76.4365582  48.4234741  66.5678645
  75.8239896  48.9105143  66.9532377  76.5329757  47.7478232  67.1116296
  76.3603480  48.3953050  66.7057503  70.4384663  50.1797582  61.6676144
  70.8928409  50.3508143  62.3923989  70.9124709  49.5665693  61.2673920
  70.5752983  50.1148468  61.7149906  63.9600188  59.6645908  70.9978883
  63.3688122  60.3055406  70.9681898  64.7221212  60.0883526  70.9710182
  63.9848449  59.8221747  70.9894030  64.3560811  50.8247906  71.6646900
  64.8162293  50.8986835  72.4022024  64.4016918  51.6229160  71.3146722
  64.4311366  50.9542053  71.7219657  67.7797683  56.8840117  62.7721151
  68.5239728  57.2714393  63.0104101  67.9258379  56.0397542  62.9361639
  67.9108268  56.8170589  62.8315121  69.6977258  48.6790376  67.8053013
  68.8513303  48.8513183  67.6794363  69.6948391  47.8739719  68.1418841
  69.5724408  48.5851405  67.8364140  70.7675559  52.4565590  68.6715071
  70.2935513  51.9307352  69.1820382  71.1393695  51.9095063  68.1029932
  70.7525448  52.2981587  68.6630218  61.1448589  54.4537097  74.0398616
  62.0074202  54.3532806  73.9535946  60.8140372  53.8731806  73.4784189
  61.2233785  54.3528723  73.9444022  72.6959058  53.3502145  61.7340824
  72.1682077  53.4330889  61.0446533  73.1554767  54.0920016  61.7305469
  72.6860909  53.4722807  61.6315520  79.0317476  54.2969423  68.0351110
  78.7927246  54.2565257  67.1971895  79.1951378  55.1440575  68.1616831
  79.0207780  54.4161508  67.9304592  64.5050375  53.2779546  70.7009035
  63.8803445  53.2897938  70.0934987  64.1695970  53.7539721  71.3500275
  64.3635867  53.3498063  70.7065603  64.6892124  51.6204664  56.7581720
  64.3404928  52.2724389  57.2213269  64.2088569  51.6061777  56.0305591
  64.5662367  51.7147718  56.7192811  61.2176050  61.3380006  72.1412799
  60.6875975  60.6472445  72.1907774  61.4901144  61.3290191  71.3125507
  61.1800773  61.2347138  72.0260215  72.2496141  61.9205708  60.8650481
  72.9730340  62.3863821  60.7215055  71.8096732  61.9879318  60.1148078
  72.2911833  61.9989545  60.7335263  63.7741120  54.8872693  72.9183903
  63.9334607  54.1316018  73.3235625  63.5934014  55.4363633  73.5724641
  63.7706479  54.8566507  73.0746609  71.7161423  47.0533929  73.4734693
  71.2201984  47.2497603  72.7826259  72.4730485  47.4526597  73.3023494
  71.7548248  47.1411663  73.3454829  68.9864303  50.7276275  70.0638003
  69.0106790  50.1936387  69.3750783  69.2375776  50.2193584  70.7263594
  69.0274222  50.5737179  70.0602648  56.4971893  58.0107770  69.4981147
  56.3915342  57.9654614  68.6333231  55.7472113  58.3561551  69.7795432
  56.3707496  58.0548678  69.4118477  65.2665625  49.4547093  69.4443747
  65.3063997  49.9556300  70.1578455  64.4415290  49.5457487  69.1749670
  65.1505151  49.5428910  69.5094286  66.6879988  55.9707603  71.7417646
  65.8571918  56.1381421  71.5352895  66.6331506  55.5943554  72.5266532
  66.5569403  55.9397334  71.8266175  64.4963772  49.4616496  77.3774057
  65.1216475  48.9178629  77.6503489  64.0414252  48.9811414  76.8081847
  64.5212032  49.3105977  77.3335651  65.0616032  54.2463195  62.2707764
  65.2018993  54.7435659  62.9736405  65.5598565  53.5449489  62.4121978
  65.1557113  54.2165173  62.3959343  65.0916255  55.1130306  59.6000341
  65.7261334  55.7090731  59.5349803  65.1741865  54.8133763  60.4146211
  65.1972806  55.1571214  59.7103427  66.6695238  51.0444281  59.5745783
  66.9911079  50.5647364  58.9205045  66.9322181  51.8543927  59.3836595
  66.7561263  51.0934179  59.4501275  72.0654393  50.4316475  71.9369262
  72.4909464  49.9789001  71.3252788  71.4511386  49.8776546  72.2134049
  72.0383038  50.2830451  71.8874287  61.5969243  57.3098146  62.8689887
  62.1061472  57.9062654  63.2501192  62.0703515  57.0424120  62.1866307
  61.7412618  57.3583962  62.8244410  72.5099991  65.9826413  61.0248543
  71.7929300  65.8087275  60.5595780  73.1606728  65.7478985  60.4924029
  72.5001841  65.9222206  60.8777760  70.5048615  46.9031575  65.3459839
  69.8616933  46.7529221  65.9144977  70.1648022  46.6573920  64.5808944
  70.3593693  46.8443697  65.3162854  75.0947962  54.8591002  64.7689848
  74.4239152  55.4020704  64.6402913  75.7887712  55.3285857  64.5271542
  75.0976829  55.0089273  64.7145375  75.2576089  51.3146885  67.6780221
  75.6103699  50.8876608  68.3526020  74.3990891  51.2297729  67.8081297
  75.1825534  51.2391626  67.7975231  63.9559774  53.9454405  65.7363067
  63.2371763  54.3618538  66.0035931  64.3272137  54.5108644  65.1854706
  63.9051706  54.0903686  65.6945874  69.7306349  52.9852405  61.0736447
  69.1371188  53.3069401  60.5221014  69.7681626  52.1393500  60.8657553
  69.6480738  52.9076733  60.9619218  76.6900149  46.4365297  68.6064533
  76.1831014  45.7294437  68.5385711  77.4867583  46.1058486  68.7365610
  76.7327389  46.2838448  68.6163528  72.6064165  52.9431909  64.5038197
  72.3777858  52.9664611  63.6616555  72.8662241  52.1189376  64.6233208
  72.6110353  52.8247989  64.3963395  61.7349108  53.2403958  76.7565659
  61.5651699  53.9005333  76.2113866  61.2915058  53.4510519  77.4778148
  61.6448442  53.3689940  76.7827289  65.6608928  51.4808456  65.7992393
  66.1366294  51.8425535  65.1642574  65.1597527  52.1364923  66.0792535
  65.6574287  51.6302644  65.7469134  78.8920289  60.9530224  61.5905398
  79.2753895  61.7021580  61.8203495  78.0964403  61.1996043  61.3317387
  78.8314072  61.0999918  61.5862971  58.6351173  56.1450823  72.0154149
  58.0877892  55.4751469  72.1335017  59.4243551  55.7780671  72.0797616
  58.6703357  55.9915810  72.0422849  67.7035581  53.6249655  59.1665777
  68.0834546  53.6429285  58.3816891  66.9628177  54.0703644  59.0456624
  67.6504419  53.6931430  59.0329345  75.3320871  51.9331847  64.7541355
  75.3315098  51.7780503  65.6125632  75.1277051  52.7794834  64.6982741
  75.3020649  52.0352467  64.8729295  57.3938142  55.3571631  69.1700172
  57.2159903  54.9048240  69.8955088  57.1057165  56.1597792  69.3538649
  57.3251096  55.4094189  69.3043675  73.0561723  56.6129348  68.4077562
  73.5515389  55.8952343  68.3681583  72.2461499  56.3100146  68.2932049
  73.0105617  56.4626995  68.3851288  68.5020335  60.4627162  60.5574567
  67.6931658  60.1393835  60.5107876  69.0095244  59.7560384  60.4902815
  68.4570002  60.3108478  60.5404861  59.1310612  57.8899355  66.2821931
  58.2656132  57.8785045  66.1704702  59.2309428  57.7029578  67.1293070
  59.0184779  57.8605416  66.3910875  68.6261637  47.8494771  74.3813943
  68.7589542  47.0525764  74.7094919  69.0106789  48.3761174  74.9612219
  68.7017966  47.8094687  74.5157446  71.6993992  44.7725097  70.9795037
  70.8939956  44.6622827  71.2962875  71.5700727  44.8737553  70.1224902
  71.5614125  44.7708767  70.9003077  75.1559952  50.9370589  71.5734733
  74.5722941  51.4379795  71.1612301  75.4764247  50.4300145  70.9399057
  75.1173128  50.9362424  71.4193241  67.6954752  49.8511184  61.8493408
  68.5170446  50.0209497  61.6075103  67.2324403  50.0058445  61.1259706
  67.7485914  49.8992917  61.7065053  66.2850084  47.8453946  72.6291837
  66.8294496  47.5045073  73.2196179  66.3387019  48.7039407  72.7713122
  66.3739203  47.9209205  72.7373710  62.0980642  61.6070362  69.5030645
  62.7025500  61.5666196  68.8744466  61.8907955  62.4541514  69.5334701
  62.1569540  61.7258364  69.4146761  57.3331925  60.5904979  69.3729568
  57.2356203  59.7801251  69.6819625  58.1160794  60.5696773  68.9875836
  57.4348061  60.4672070  69.3616431  81.2079200  71.5974768  59.0442482
  81.4475204  71.8052752  58.2317825  81.5295041  70.7932277  59.1531427
  81.2916358  71.5088869  58.9403035  76.5169491  63.5268164  62.8902020
  77.2715459  63.8946481  62.6519070  76.3397025  63.9007718  63.6581200
  76.6023969  63.6366352  62.9686908  74.8726555  65.9338483  59.5880133
  74.6902128  66.1510364  58.7621126  75.7352168  66.0477496  59.6438747
  74.9731145  65.9828381  59.4734620  80.5526274  62.9364893  62.6229157
  81.2812435  62.7580848  62.1767313  80.6421167  63.7782973  62.8336335
  80.6732936  63.0348772  62.5882674  74.4188582  69.2112655  58.1002606
  73.7046759  68.9250835  58.5125039  74.9032551  69.5509281  58.7408993
  74.3847946  69.2194305  58.2558241  73.5487913  67.8252626  62.9107080
  73.2612709  67.4553897  62.1739028  74.2358381  68.2947482  62.6490785
  73.6076810  67.8399596  62.7622156  71.1216108  68.6033839  63.7592361
  71.2232244  69.4060000  64.0873337  71.9171995  68.4021175  63.4615442
  71.2544013  68.6919738  63.7627717  75.6624707  67.1389972  56.7581720
  75.3137511  67.7909697  57.2213269  75.1821153  67.1247085  56.0305591
  75.5394951  67.2333026  56.7192811  76.0648838  70.6315614  59.6000341
  76.6993918  71.2276039  59.5349803  76.1474449  70.3319071  60.4146211
  76.1705389  70.6756522  59.7103427  77.6427821  66.5629589  59.5745783
  77.9643662  66.0832671  58.9205045  77.9054765  67.3729235  59.3836595
  77.7293847  66.6119487  59.4501275  78.6768164  69.1434963  59.1665777
  79.0567129  69.1614593  58.3816891  77.9360761  69.5888952  59.0456624
  78.6237002  69.2116738  59.0329345  78.6687335  65.3696492  61.8493408
  79.4903030  65.5394804  61.6075103  78.2056986  65.5243753  61.1259706
  78.7218497  65.4178225  61.7065053  31.7699379  -4.9823573  51.1365967
  31.0182279  -5.3608035  50.9082013  32.2185391  -4.9505139  50.3884778
  31.7249046  -5.0337966  50.9923470  36.7628630  -2.6083935  52.5062626
  37.1468009  -2.0397036  51.9667401  36.6987771  -3.3334424  52.0268442
  36.8102057  -2.6308471  52.3556489  33.1884875  -0.0527592  54.8043596
  33.8322330   0.3885572  55.1939754  33.5141130  -0.8574165  54.7173855
  33.3316703  -0.1062397  54.8489073  28.1066504  -4.0699223  54.3037280
  27.6234082  -3.3448734  54.2796863  28.9189822  -3.7723093  54.4147437
  28.1557252  -3.9196870  54.3164559  30.9610701  -3.5543047  54.4557560
  31.6631281  -4.0691058  54.5130316  30.8808184  -3.2268896  55.2604435
  31.0534462  -3.5828821  54.5830352  27.7550441  -5.4379623  56.6180885
  27.7954586  -5.1664772  55.7900664  28.3144965  -4.9137715  57.0338673
  27.8433787  -5.3203868  56.5572773  33.9863856  -4.2360794  49.1453841
  34.2762154  -4.6271813  48.4213067  34.7167337  -4.0544089  49.5859116
  34.1370740  -4.2666981  49.1036648  31.9269772  -2.2593412  52.2113990
  31.7070067  -2.5496057  53.0040657  31.7064294  -2.9178457  51.6831903
  31.8617366  -2.3993703  52.2502899  34.0937727  -0.8864022  50.9944683
  34.7461785  -1.4187580  51.2235709  33.3963336  -1.2395370  51.3812557
  34.0868445  -1.0174499  51.0856851  32.9263704  -3.6555503  58.8582028
  33.0753268  -4.2152587  58.2055432  33.7063706  -3.5763501  59.2414547
  33.0637798  -3.7269937  58.8178977  35.4517005  -3.4840860  60.1366519
  35.3760676  -4.1532049  60.6917307  35.3806864  -2.7823072  60.6507185
  35.4297612  -3.4795953  60.2943367  34.8408639  -0.0772540  58.5944520
  35.3304569  -0.7761751  58.4120184  34.2692871  -0.3748670  59.1820577
  34.8293169  -0.2246317  58.6545560  35.9187769  -2.6190079  56.9341653
  35.6953423  -3.3771250  57.3025679  35.4297612  -2.5892058  56.2122092
  35.8131218  -2.7267854  56.8818394  34.5666226  -2.3989621  54.3878737
  34.1526624  -3.0615491  53.9982579  35.2513600  -2.2511762  53.8674432
  34.6064597  -2.4748963  54.2535234  37.9331520  -3.2399536  55.1402354
  37.5347803  -3.1297265  54.3723174  37.3182739  -3.0317469  55.7228914
  37.7830409  -3.1925968  55.1133653  31.5320695  -1.9580539  56.7892083
  31.8467254  -1.1444151  56.7969865  31.9414109  -2.3430321  57.4574242
  31.6388793  -1.8951837  56.8896175  42.7431963  10.5361735  51.1365967
  41.9914862  10.1577273  50.9082013  43.1917974  10.5680169  50.3884778
  42.6981629  10.4847342  50.9923470  51.6684539   7.2685543  64.9789192
  52.3751307   6.7737574  65.1076126  51.8572475   7.7094624  64.2491850
  51.8012445   7.2603893  64.8898237  48.1956922  10.9587105  46.5651515
  47.8608291  11.6364026  46.1295737  48.7083793  10.5692416  45.9768386
  48.2222504  11.0011683  46.4138306  47.7361214  12.9101373  52.5062626
  48.1200593  13.4788272  51.9667401  47.6720355  12.1850884  52.0268442
  47.7834641  12.8876837  52.3556489  51.2042644   3.0591061  58.0160388
  51.7498604   3.7376148  58.0754357  51.1459520   2.9178522  57.1561969
  51.2758558   3.1383063  57.8972448  44.3216719  10.5480127  53.4028740
  44.4227082   9.7380481  53.7125868  43.7258464  10.4537074  52.7728418
  44.2489257  10.4145155  53.3554978  52.9807713   4.4875668  48.8894115
  52.8647238   5.2383354  49.3186253  53.7763599   4.2299621  49.1390202
  53.0812302   4.5610515  48.9898207  44.1617458  15.4657716  54.8043596
  44.8054914  15.9070880  55.1939754  44.4873714  14.6611143  54.7173855
  44.3049287  15.4122911  54.8489073  37.5181763   6.5700414  53.0281074
  37.2831947   5.7368066  52.9213342  37.6567404   6.8505079  52.2142275
  37.5037425   6.4883917  52.8923429  39.8171850  -1.2613856  55.9265381
  39.1976882  -1.8521208  55.7575396  39.7155714  -0.6702420  55.2929705
  39.7109526  -1.2609773  55.8070371  44.8638038   8.4769691  50.1763458
  45.1853879   9.0174899  49.5724766  45.5110135   7.9066463  50.3085747
  45.0064093   8.4728866  50.1070493  46.9139746   0.4785686  50.2597844
  47.6119911   0.6573814  50.7519308  47.2292079  -0.0443975  49.6368234
  47.0635083   0.4279458  50.2399855  39.5440983   2.2838426  58.1708950
  39.4199680   2.8700872  58.8058769  40.1959268   1.7898622  58.4721225
  39.6214633   2.2977230  58.3094880  47.1027681   6.8656131  50.2477636
  47.5421317   6.2573232  50.6932409  46.9532344   6.4863504  49.4763101
  47.1449147   6.7194602  50.1996803  44.5699324   5.4600143  57.4496461
  45.2148327   4.9672586  57.1307410  44.8101102   5.6024930  58.2762540
  44.7009910   5.4077585  57.5245995  47.1085416   8.3055049  57.1003354
  47.3908659   7.5106455  56.8790110  47.8371576   8.7835636  57.1208415
  47.2574980   8.2589646  57.0706369  50.7037018   5.2183312  47.2008405
  50.6188313   6.0744279  47.3457974  51.1921401   4.9427637  47.8690564
  50.7625915   5.3040634  47.3210487  51.6355451   1.8368107  48.7006140
  51.1066923   2.0527740  49.3603446  52.1580471   2.5304245  48.6207110
  51.6343904   1.9711244  48.7861739  57.0903504   7.4114411  54.0739185
  56.2601207   7.6225055  54.2372601  57.0412756   6.5851466  53.7981468
  56.9610240   7.3204017  54.0576550  43.5255059   5.7331323  47.5013608
  42.9412274   6.2381355  47.9079472  43.1225154   5.5073710  46.7610200
  43.3794363   5.7739572  47.4518633  39.0799088  11.4486085  54.3037280
  38.5966666  12.1736574  54.2796863  39.8922406  11.7462215  54.4147437
  39.1289835  11.5988438  54.3164559  45.1513242  10.2418265  56.9087094
  44.6340183   9.8825680  56.3048402  45.8487633   9.7180440  56.9193160
  45.1778823  10.1115953  56.8217353  48.8076834  10.6913079  62.8703267
  48.8960180  10.5039220  63.7181478  49.2366546  10.0450509  62.4708114
  48.8838936  10.5676087  62.9375019  46.3747293   9.9744239  61.8520929
  45.8118128   9.5616849  62.3760591  47.1368317   9.8997145  62.2714073
  46.4041742   9.9021640  61.9913930  47.9832273   1.9796975  45.9782529
  48.2228277   2.1874959  45.1657872  48.3048114   1.1754484  46.0871473
  48.0669431   1.8911077  45.8743082  41.9343285  11.9642260  54.4557560
  42.6363864  11.4494250  54.5130316  41.8540768  12.2916412  55.2604435
  42.0267045  11.9356487  54.5830352  42.9822192   2.2017847  63.5837975
  43.1542695   2.0923742  64.4323256  43.5191549   2.8472253  63.3469167
  43.0867195   2.2809849  63.6743071  41.2594060   8.1548612  53.9643168
  42.0982960   8.3871545  54.0116929  41.2905830   7.2852924  53.8950203
  41.3875778   8.0605559  53.9607812  41.8846763   8.5749488  58.2656473
  42.4244988   8.4320619  58.9359846  41.2016710   8.9746238  58.6340499
  41.8638917   8.6129159  58.4190895  51.3087648   4.2540488  53.4601498
  52.0645163   4.6872003  53.4990406  51.4149973   3.6045258  54.0336134
  51.4357819   4.2217972  53.5499523  54.3467819   8.0813766  54.2103901
  53.9103051   8.0850508  54.9662872  54.0130735   8.7619264  53.7783478
  54.2330439   8.1826221  54.2584733  48.9196893  10.1222098  65.5347051
  49.7037310  10.2352946  65.9002793  48.7193488   9.2963235  65.7305737
  49.0062918  10.0168818  65.6181437  37.2883908   4.7949778  58.4190895
  37.0222324   3.9788895  58.5781885  37.3022473   4.8402934  57.5486410
  37.2508631   4.6806683  58.3144377  41.1941655  -0.4065137  45.0342653
  40.4799833  -0.6926958  45.4465085  41.6785624  -0.0668511  45.6749040
  41.1601019  -0.3983487  45.1898288  49.0767286  12.0332200  59.1813506
  48.2782532  11.7931700  59.4387375  49.5253298  12.0846593  59.9280554
  49.0241898  12.0054592  59.3298431  57.4812166   4.7994685  53.1023538
  58.1428600   4.2385354  53.0019446  56.8403578   4.3046716  53.4276229
  57.4841033   4.6431094  53.1355878  48.3688973   8.0964817  45.4104461
  48.7840122   7.7649841  44.7188957  47.5380903   7.8633719  45.2824598
  48.3076982   8.0136073  45.2895308  37.6977322   5.5808558  55.7002639
  37.5152895   5.5555444  54.8474931  38.4326991   6.0507496  55.7391548
  37.7791386   5.6469920  55.5800557  53.7676996   5.8160068  52.8435527
  54.0032585   5.9605267  52.0162377  53.9166560   6.5802476  53.2367040
  53.8242800   5.9499122  52.7799130  40.7623074   2.2993561  62.2084748
  41.4863046   2.2846591  62.6949642  40.8639210   3.0088916  61.7106716
  40.8841283   2.4018264  62.2063534  55.5967453   4.6561734  50.6805130
  55.9275670   5.1889374  50.0745225  56.1700541   4.7100621  51.3367081
  55.7301132   4.7431303  50.6882912  48.1368023   5.7792645  67.0733695
  47.3441004   6.0936157  67.2586314  48.2516950   5.9944114  66.2354479
  48.0363434   5.8576482  66.9772029  50.8099342   2.5026636  51.3628710
  50.9046197   3.2415931  51.8168336  50.1858186   2.0744112  51.7963275
  50.7308372   2.5487957  51.4936858  49.0651816   5.6812849  62.0118991
  49.6390678   5.0440093  62.1667555  48.9866620   5.6816931  61.1428649
  49.1385051   5.5877960  61.9065402  37.6648232   2.4602059  55.8501706
  38.2421735   2.3238509  56.4893951  36.9662294   2.0037843  56.1047290
  37.6469254   2.3724325  55.9823995  51.0622363   4.3475376  44.5965662
  50.9802526   4.4177563  45.4620649  51.7002084   4.9105120  44.4049403
  51.1442201   4.4414347  44.6955612  44.4215535   4.1136114  54.0640189
  44.1634779   3.2807849  54.0371488  44.4764017   4.3393727  53.2232689
  44.3915312   4.0233885  53.9360326  43.3950247   1.6673877  54.5505084
  42.8199838   1.8266045  55.1869044  43.0185923   1.0309286  54.0873534
  43.2553059   1.5971690  54.5759642  47.0623535   0.1397226  59.4097462
  46.6737968  -0.2848556  58.7549653  46.3978234   0.3879376  59.9174489
  46.9070463   0.1135947  59.3885330  33.1407066   1.3113951  52.5649524
  33.2267317   0.9345820  53.3463054  33.7682863   0.9374397  52.0869482
  33.2463617   1.1999434  52.6095001  48.1662474   4.3695831  47.6074269
  48.9803112   4.6610723  47.4957040  48.1021615   3.7155693  47.0332562
  48.2765213   4.3161025  47.5063106  54.3871964   7.0521827  62.0203845
  54.1510601   6.2209891  61.9015905  55.0315193   7.0007434  62.6058689
  54.4466635   6.9219515  62.0889738  44.0370382   7.8417348  52.7346581
  44.6744329   7.6029095  53.2798374  44.4625454   8.0454507  51.9999742
  44.1946548   7.8368358  52.7063738  38.7283024  10.0805684  56.6180885
  38.7687170  10.3520536  55.7900664  39.2877548  10.6047593  57.0338673
  38.8166370  10.1981440  56.5572773  44.6773197   3.0619638  47.0721470
  45.0618350   2.8427344  47.8238016  44.4284817   3.8882583  47.2022547
  44.6975270   3.1517784  47.2022547  55.4108384   6.8366275  58.0832139
  55.1054202   7.5694332  58.4445455  54.6914600   6.4304205  57.8024925
  55.2595727   6.8848008  58.0945276  46.4191854   8.3189771  54.4140367
  46.4930862   8.1564942  55.2682217  47.2361360   8.5079960  54.1700849
  46.5508213   8.3226513  54.5038393  40.1797611   8.6647633  51.4434811
  39.3535728   8.9109371  51.3169090  40.2409602   8.5859714  52.3096869
  40.0671778   8.6892582  51.5523755  44.9596440  11.2824514  49.1453841
  45.2494738  10.8913495  48.4213067  45.6899920  11.4641219  49.5859116
  45.1103324  11.2518327  49.1036648  45.5491185   6.0842260  60.2306971
  45.0502878   6.7958027  60.3091860  46.3591409   6.4042926  60.1925134
  45.5947292   6.2369108  60.2363540  42.9002355  13.2591896  52.2113990
  42.6802651  12.9689251  53.0040657  42.6796877  12.6006851  51.6831903
  42.8349949  13.1191604  52.2502899  41.8119302   5.3465213  54.4769692
  41.5232551   4.7202684  55.0115419  42.6802650   5.2885500  54.5434373
  41.8979554   5.2452757  54.5660647  45.0670311  14.6321286  50.9944683
  45.7194369  14.0997728  51.2235709  44.3695920  14.2789938  51.3812557
  45.0601029  14.5010809  51.0856851  42.0151576   6.9860464  50.4012057
  42.7697544   7.3673503  50.6147520  41.4222188   7.4371607  50.8558754
  42.0388289   7.1089291  50.4994936  53.0610229   6.9525700  50.3375662
  53.6268262   7.6118910  50.2534205  52.4138133   7.2975398  50.8092064
  53.0488986   7.1007641  50.3948419  44.4758243  -1.0576696  65.5269269
  43.6658019  -0.7518916  65.4159112  44.9532930  -0.3371114  65.6421853
  44.4261722  -0.9062095  65.5276340  43.3349802   8.1569025  55.7752173
  42.8130556   8.2969317  56.4604037  43.7223823   7.3979689  55.9654290
  43.3153503   8.0654549  55.9053249  40.3240986  -1.7925166  49.8447127
  40.0365782  -2.1623896  49.1079075  41.0111455  -1.3230311  49.5830832
  40.3829884  -1.7778197  49.6962203  49.5316807   9.8964484  49.7612741
  49.2903483   9.1632345  49.3539806  49.7118140  10.4451341  49.1079075
  49.5224431   9.8686875  49.6042964  44.7616128   5.1873044  51.1733664
  44.5658911   5.7947779  50.5793967  44.9850474   4.4940988  50.6925337
  44.7650769   5.1750570  51.0149744  43.1594658   2.0727782  51.2914532
  43.8817310   2.2368940  50.8318338  42.6802651   2.7937447  51.1853872
  43.1958389   2.2026011  51.2080146  40.8102275   4.4785854  60.3968672
  41.3223372   4.7570108  59.7477432  40.5238617   5.2175148  60.7631485
  40.8437138   4.6288208  60.3558550  54.9945689   3.6159567  53.9572459
  54.9079664   3.7714994  54.8107237  54.5396169   4.2597643  53.5831864
  54.9148946   3.7335323  54.0279565  37.8969181  -1.0143954  50.6932408
  37.9985317  -0.2117792  51.0213384  38.6925068  -1.2156618  50.3955489
  38.0297087  -0.9258055  50.6967764  38.7132913  -0.8996776  58.4353530
  38.5718405  -1.7512835  58.5598038  38.9973476  -0.8568115  57.6115736
  38.7340759  -1.0197026  58.3321154  52.7619554   7.6453674  56.3684799
  52.6233914   8.3434720  56.8733542  51.9819552   7.4902330  56.0120981
  52.6262781   7.7253841  56.3911074  51.0997639   3.9450049  62.6207181
  51.0945678   3.0729866  62.6249607  51.8058633   4.1438218  62.1476637
  51.2042643   3.8453923  62.5514216  44.8268533   3.6727033  61.9921001
  44.9711908   4.2528241  61.3564111  45.1744181   4.0503330  62.6970856
  44.8995994   3.8147737  62.0019996  46.9988450   2.8717202  59.7746133
  46.2511764   3.0648216  59.3694411  47.1529975   2.0462421  59.5370254
  46.9110878   2.7782313  59.6791539  43.8996288  11.8629805  58.8582028
  44.0485851  11.3032721  58.2055432  44.6796290  11.9421807  59.2414547
  44.0370381  11.7915370  58.8178977  54.2572927   7.0031928  47.1301299
  53.8779736   6.2169066  47.1230588  53.5939173   7.5518785  46.9872943
  54.1031402   6.9676752  47.1082095  46.4249588  12.0344448  60.1366519
  46.3493259  11.3653258  60.6917307  46.3539448  12.7362236  60.6507185
  46.4030195  12.0389355  60.2943367  47.0819835  10.5545447  50.9690125
  47.8469726  10.2855090  50.6472789  46.9797925  10.0695457  51.6860188
  47.1801331  10.4435011  51.0269952  49.6038496   7.5857631  42.9490074
  50.3711481   7.6457755  42.5395926  49.1569805   7.0138072  42.4646393
  49.6511923   7.5094206  42.8167784  50.5016291   6.3912286  55.2342806
  49.8261293   6.1597519  55.7356193  50.5108667   5.7833469  54.6084911
  50.4034796   6.2671212  55.2158959  47.6310435   1.2330115  61.9906859
  47.5669577   2.0940072  61.8626996  47.7707623   0.9162109  61.1902411
  47.6425905   1.3130282  61.8535072  52.5033026   9.2477419  47.4652984
  52.5852863  10.0544405  47.1414435  52.9882768   9.2673378  48.1893758
  52.5870184   9.3698081  47.5239883  46.3129529   3.9262255  56.1323062
  45.8891778   4.1266754  55.3962081  46.1374384   3.0791103  56.2447362
  46.2240410   3.8311036  56.0396752  45.8141223  15.4412768  58.5944520
  46.3037153  14.7423557  58.4120184  45.2425455  15.1436638  59.1820577
  45.8025753  15.2938991  58.6545560  41.6011974   4.4214306  51.5651035
  41.7576593   4.3561109  52.4207027  41.9412567   5.1962859  51.3529714
  41.6745209   4.5263504  51.6605629  48.1391119   3.7972190  50.4344398
  48.6806664   3.2942571  50.8983019  48.4537678   3.7437384  49.6233883
  48.2655516   3.7151611  50.3828210  52.0108226   8.0074837  67.5471310
  52.8243092   7.7359986  67.7076443  51.8503193   7.7082377  66.7431506
  52.1078175   7.9229763  67.4516716  46.3077569   9.1889541  47.7184426
  46.3770389   8.3304080  47.8577427  47.0866024   9.4061422  47.3903451
  46.4330419   9.0942405  47.6901583  50.6985056  11.6127242  51.9320919
  50.3064848  11.3093958  51.2143786  50.8538128  12.4496332  51.7425873
  50.6638646  11.6911079  51.7977417  38.1746236   1.6049257  51.8811802
  38.5545201   2.0233801  51.2172069  37.6001600   2.1862712  52.1880645
  38.1457561   1.7527115  51.8288543  50.8624731   8.1777231  51.8726950
  50.5039386   8.3491874  52.6490982  50.3763442   8.6390437  51.3154948
  50.7383428   8.2716202  51.9052219  45.6513096   3.8576397  44.4127184
  45.9405621   4.6341279  44.6870759  45.7384895   3.3465128  45.1141684
  45.7067353   3.8968315  44.5569682  48.5472984   1.7057631  66.2078708
  49.0172615   2.3299747  66.5946582  48.5934864   1.0374606  66.7671923
  48.6240860   1.6992311  66.3478779  52.0229470   9.0681127  62.8194151
  52.6609191   8.5741323  62.4856607  51.3803562   8.9958528  62.2346378
  52.0223697   8.9840136  62.6836506  52.0783727   9.7600936  59.4599508
  52.8676105   9.4090000  59.5801589  52.2527325  10.5737324  59.1976141
  52.2204008   9.8286793  59.4387376  41.8177037   3.1709661  56.5127296
  40.9765044   3.0713535  56.7206190  42.0267045   3.9405142  56.8641617
  41.7241730   3.2701705  56.5954611  39.2952604   0.7929198  54.3412047
  38.9009302   0.8672210  53.5662157  38.7392721   1.1787145  54.8920409
  39.1555417   0.8610973  54.3079707  45.6293702   1.0991061  55.7624894
  45.3256840   0.5447049  56.3635302  44.9273123   1.2783270  55.2752928
  45.4809912   1.0435843  55.7794600  43.6912053   8.3140781  60.4696992
  43.5832408   8.3242843  61.3359050  43.9007835   9.1395562  60.2801946
  43.7062164   8.4381856  60.5701083  41.7085845   5.5653424  57.9318929
  41.1173778   6.2062922  57.9021944  42.4706869   5.9891041  57.9050229
  41.7334106   5.7229262  57.9234077  57.8276267   5.3959193  58.9296208
  57.8859390   5.8445842  59.6756184  57.1942734   5.8058006  58.4926288
  57.7427562   5.5232928  58.9748756  51.4675361  11.0162735  55.3650954
  51.2695050  11.5053550  54.6707165  50.8463072  11.2203977  55.9435087
  51.3462926  11.1179273  55.3474177  45.5283340   2.7847632  49.7061198
  46.2725385   3.1721908  49.9444148  45.6744036   1.9405057  49.8701686
  45.6593925   2.7178105  49.7655168  38.8934246   0.3544612  60.9738663
  39.7559859   0.2540321  60.8875993  38.5626029  -0.2260679  60.4124235
  38.9719442   0.2536239  60.8784069  54.7797946   3.4175481  57.0161898
  54.5396169   2.5781896  57.0204324  55.2589953   3.4975648  57.7402671
  54.8150130   3.3056881  57.1236700  53.3849163   4.5826887  60.8996202
  54.1083362   4.1299414  60.7207222  53.1199126   4.8631553  60.1168530
  53.4530437   4.5577856  60.7574918  42.2536032  -0.8212939  57.6349081
  41.6289102  -0.8094547  57.0275034  41.9181627  -0.3452764  58.2840322
  42.1121524  -0.7494422  57.6405650  38.9661707   7.2387521  59.0752846
  38.4361632   6.5479960  59.1247820  39.2386801   7.2297706  58.2465554
  38.9286430   7.1354653  58.9600262  49.9981798   7.8213223  47.7990528
  50.7215997   8.2871336  47.6555102  49.5582389   7.8886833  47.0488125
  50.0397490   7.8997060  47.6675310  49.1667953   4.6810766  59.0491217
  48.5524946   4.1368816  59.3439853  49.6835238   4.1675002  58.5697033
  49.1523615   4.5247175  59.0215446  48.4064250   5.7515036  56.7835516
  47.9791858   5.1264754  56.3500951  48.3989194   5.4689958  57.6094523
  48.3423391   5.6167816  56.8415343  41.5226777   0.7880209  59.8523950
  41.6820264   0.0323533  60.2575672  41.3419671   1.3371148  60.5064688
  41.5192136   0.7574023  60.0086656  34.2457549   3.9115285  56.4321194
  34.1400999   3.8662130  55.5673278  33.4957769   4.2569066  56.7135479
  34.1193152   3.9556193  56.3458524  45.1980895   4.9215349  64.4804089
  44.3476525   5.0587063  64.6161734  45.3609022   4.1879127  64.9251790
  45.0964758   4.8329450  64.5659688  44.4365645   1.8715118  58.6757693
  43.6057575   2.0388936  58.4692941  44.3817162   1.4951069  59.4606579
  44.3055060   1.8404850  58.7606221  42.8101689   0.1470710  49.2047811
  42.9504650   0.6443174  49.9076452  43.3084222  -0.5542996  49.3462025
  42.9042770   0.1172689  49.3299390  42.8401911   1.0137821  46.5340388
  43.4746991   1.6098246  46.4689850  42.9227522   0.7141279  47.3486258
  42.9458462   1.0578729  46.6443474  47.6477867   7.9670671  60.0284646
  47.1402958   8.5206518  60.4725276  47.3504513   8.0278961  59.2103420
  47.5282752   8.0576982  59.9733103  39.3454899   3.2105662  49.8029934
  39.8547129   3.8070169  50.1841239  39.8189172   2.9431635  49.1206353
  39.4898275   3.2591477  49.7584456  50.2585647  11.8833928  47.9588589
  49.5414957  11.7094791  47.4935827  50.9092385  11.6486501  47.4264075
  50.2487498  11.8229721  47.8117807  46.8920352  12.8995229  56.9341653
  46.6686007  12.1414058  57.3025679  46.4030196  12.9293250  56.2122092
  46.7863801  12.7917453  56.8818394  41.7045431  -0.1538080  52.6703114
  40.9857420   0.2626053  52.9375978  42.0757793   0.4116159  52.1194752
  41.6537363  -0.0088798  52.6285921  48.9491342   7.0676961  64.4853586
  48.9087197   6.4226638  63.8998742  49.7614660   7.0113579  64.7978998
  49.0634495   6.9635928  64.4450536  45.5398809  13.1195687  54.3878737
  45.1259208  12.4569817  53.9982579  46.2246184  13.2673546  53.8674432
  45.5797181  13.0436345  54.2535234  48.9064103  12.2785772  55.1402354
  48.5080387  12.3888043  54.3723174  48.2915323  12.4867839  55.7228914
  48.7562993  12.3259340  55.1133653  44.6369050   0.6973898  61.0403344
  44.1247954   0.0895081  61.3988375  44.4648547   1.4130490  61.5077320
  44.5358687   0.7137197  61.1619568  39.4834765  -0.8588527  63.6905706
  39.3137355  -0.1987152  63.1453913  39.0400715  -0.6481966  64.4118195
  39.3934099  -0.7302545  63.7167335  56.6405946   6.8537739  48.5245445
  57.0239552   7.6029095  48.7543542  55.8450059   7.1003559  48.2657434
  56.5799728   7.0007433  48.5203018  36.3836830   2.0458339  58.9494196
  35.8363549   1.3758984  59.0675064  37.1729208   1.6788186  59.0137663
  36.4189013   1.8923325  58.9762896  46.2321238   1.7065796  64.4457607
  46.9832565   2.0217472  64.7597161  46.4243815   1.5044967  63.6191529
  46.3712652   1.7233177  64.3701002  45.4521238  -0.4742829  46.1005824
  45.8320203  -0.4563200  45.3156938  44.7113834  -0.0288840  45.9796671
  45.3990075  -0.4061055  45.9669392  35.1423799   1.2579146  56.1040219
  34.9645560   0.8055755  56.8295134  34.8542821   2.0605308  56.2878696
  35.0736752   1.3101704  56.2383722  50.8047380   2.5136864  55.3417609
  51.3001046   1.7959859  55.3021629  49.9947156   2.2107661  55.2272096
  50.7591274   2.3634510  55.3191335  46.2505992   6.3634677  47.4914614
  45.4417315   6.0401351  47.4447923  46.7580901   5.6567899  47.4242862
  46.2055659   6.2115993  47.4744908  36.8796269   3.7906870  53.2161978
  36.0141789   3.7792561  53.1044749  36.9795085   3.6037093  54.0633117
  36.7670436   3.7612931  53.3250922  52.8699199   5.2640551  58.0294738
  53.2954271   4.7414973  57.4765163  52.5056119   5.8621389  57.5083361
  52.8785802   5.2750778  57.8703748  42.5053279  13.5604769  56.7892083
  42.8199838  14.3741157  56.7969865  42.9146692  13.1754987  57.4574242
  42.6121377  13.6233471  56.8896175  49.4577799   8.9774816  54.3595895
  49.9288977   9.6915078  54.5285880  49.7937977   8.3773566  54.8955765
  49.5772914   8.9946280  54.4628271  51.5454783  10.5876129  66.5387967
  51.6551749   9.7984689  66.8944715  51.8745680  10.4982065  65.7362305
  51.6107189  10.4581982  66.4730358  50.0951745   8.7692750  61.1223588
  49.5472691   8.1450633  60.8543653  50.5564774   8.9587022  60.4067667
  50.0818954   8.7051800  60.9774019  39.8466299   7.5077877  56.4370692
  40.4511156   7.4673711  55.8084512  39.6393612   8.3549029  56.4674748
  39.9055196   7.6265880  56.3486808  49.6610071   9.7743822  57.6532929
  50.4808445   9.6306788  57.9149224  49.3804149  10.3990021  58.1949367
  49.7406815   9.8454174  57.7720869  35.0817581   6.4912495  56.3069615
  34.9841859   5.6808766  56.6159672  35.8646451   6.4704288  55.9215883
  35.1833718   6.3679585  56.2956478  66.1323722  17.4308674  50.6175805
  66.1017726  18.2853311  50.7894075  66.7305070  17.1303967  51.1761949
  66.2160879  17.5125171  50.7250608  59.3323406  16.5184325  55.3728736
  58.4761302  16.6792823  55.4237853  59.3791060  15.6476389  55.3933797
  59.2122518  16.4135127  55.3834802  53.7164546  26.0547043  51.1365967
  52.9647446  25.6762581  50.9082013  54.1650558  26.0865477  50.3884778
  53.6714213  26.0032650  50.9923470  62.6417123  22.7870851  64.9789192
  63.3483890  22.2922881  65.1076126  62.8305058  23.2279932  64.2491850
  62.7745029  22.7789201  64.8898237  59.1689506  26.4772412  46.5651515
  58.8340874  27.1549334  46.1295737  59.6816376  26.0877724  45.9768386
  59.1955087  26.5196991  46.4138306  58.7093797  28.4286681  52.5062626
  59.0933177  28.9973580  51.9667401  58.6452939  27.7036191  52.0268442
  58.7567225  28.4062145  52.3556489  62.1775227  18.5776369  58.0160388
  62.7231187  19.2561456  58.0754357  62.1192104  18.4363830  57.1561969
  62.2491142  18.6568371  57.8972448  55.2949302  26.0665435  53.4028740
  55.3959665  25.2565789  53.7125868  54.6991048  25.9722382  52.7728418
  55.2221841  25.9330463  53.3554978  63.9540296  20.0060976  48.8894115
  63.8379822  20.7568662  49.3186253  64.7496183  19.7484929  49.1390202
  64.0544886  20.0795823  48.9898207  55.1350042  30.9843024  54.8043596
  55.7787497  31.4256188  55.1939754  55.4606297  30.1796450  54.7173855
  55.2781871  30.9308219  54.8489073  50.7904434  14.2571452  55.9265381
  50.1709466  13.6664100  55.7575396  50.6888298  14.8482887  55.2929705
  50.6842110  14.2575535  55.8070371  55.8370622  23.9954999  50.1763458
  56.1586463  24.5360206  49.5724766  56.4842718  23.4251771  50.3085747
  55.9796677  23.9914174  50.1070493  57.8872330  15.9970994  50.2597844
  58.5852494  16.1759122  50.7519308  58.2024662  15.4741333  49.6368234
  58.0367667  15.9464766  50.2399855  50.5173567  17.8023734  58.1708950
  50.3932264  18.3886179  58.8058769  51.1691852  17.3083930  58.4721225
  50.5947216  17.8162538  58.3094880  58.0760265  22.3841439  50.2477636
  58.5153901  21.7758540  50.6932409  57.9264928  22.0048812  49.4763101
  58.1181731  22.2379910  50.1996803  55.5431908  20.9785451  57.4496461
  56.1880911  20.4857894  57.1307410  55.7833685  21.1210238  58.2762540
  55.6742493  20.9262893  57.5245995  58.0817999  23.8240357  57.1003354
  58.3641242  23.0291763  56.8790110  58.8104160  24.3020944  57.1208415
  58.2307563  23.7774954  57.0706369  56.0599193  11.3663391  54.3419119
  55.7302523  11.8174534  53.6722818  55.3844195  11.2879554  54.8892125
  55.9109630  11.4214526  54.3242342  61.6769602  20.7368620  47.2008405
  61.5920897  21.5929587  47.3457974  62.1653985  20.4612944  47.8690564
  61.7358499  20.8225942  47.3210487  63.2675601   7.3548914  52.5868730
  62.9529042   8.0452392  53.0189152  62.7502543   7.2993696  51.8854230
  63.1440071   7.4483802  52.5465679  62.6088035  17.3553415  48.7006140
  62.0799506  17.5713048  49.3603446  63.1313055  18.0489553  48.6207110
  62.6076488  17.4896551  48.7861739  68.0636088  22.9299719  54.0739185
  67.2333791  23.1410363  54.2372601  68.0145340  22.1036774  53.7981468
  67.9342823  22.8389325  54.0576550  54.4987643  21.2516631  47.5013608
  53.9144858  21.7566663  47.9079472  54.0957738  21.0259018  46.7610200
  54.3526946  21.2924880  47.4518633  56.1245825  25.7603573  56.9087094
  55.6072767  25.4010988  56.3048402  56.8220217  25.2365748  56.9193160
  56.1511406  25.6301261  56.8217353  59.7809417  26.2098387  62.8703267
  59.8692763  26.0224528  63.7181478  60.2099130  25.5635817  62.4708114
  59.8571520  26.0861395  62.9375019  57.3479877  25.4929547  61.8520929
  56.7850712  25.0802157  62.3760591  58.1100901  25.4182453  62.2714073
  57.3774326  25.4206948  61.9913930  58.9564857  17.4982283  45.9782529
  59.1960861  17.7060267  45.1657872  59.2780698  16.6939792  46.0871473
  59.0402015  17.4096385  45.8743082  54.2655147   9.4275679  49.8242067
  55.0201115   9.7953996  49.5859117  54.0882682   9.8015234  50.5921246
  54.3509626   9.5373867  49.9026955  52.9075869  27.4827568  54.4557560
  53.6096448  26.9679557  54.5130316  52.8273352  27.8101720  55.2604435
  52.9999629  27.4541795  54.5830352  67.5590046  15.5770120  57.8689606
  66.7218467  15.6472307  58.1037201  67.5278277  15.5794614  56.9963908
  67.4308328  15.5880347  57.7749154  53.9554775  17.7203155  63.5837975
  54.1275279  17.6109050  64.4323256  54.4924133  18.3657561  63.3469167
  54.0599779  17.7995157  63.6743071  52.6212212  11.8345998  46.5220180
  52.4387785  12.0517879  45.6961173  53.4837825  11.9485011  46.5778794
  52.7216801  11.8835896  46.4074667  52.2326644  23.6733920  53.9643168
  53.0715543  23.9056853  54.0116929  52.2638413  22.8038232  53.8950203
  52.3608362  23.5790867  53.9607812  52.8579347  24.0934796  58.2656473
  53.3977572  23.9505927  58.9359846  52.1749293  24.4931546  58.6340499
  52.8371501  24.1314466  58.4190895  58.3011931   8.8372409  49.5569204
  59.0298092   8.6588364  49.1107360  58.3906824   9.6790489  49.7676382
  58.4218593   8.9356287  49.5222721  62.2820232  19.7725796  53.4601498
  63.0377747  20.2057311  53.4990406  62.3882556  19.1230566  54.0336134
  62.4090402  19.7403280  53.5499523  65.3200403  23.5999073  54.2103901
  64.8835635  23.6035816  54.9662872  64.9863318  24.2804572  53.7783478
  65.2063023  23.7011529  54.2584733  59.8929477  25.6407406  65.5347051
  60.6769893  25.7538254  65.9002793  59.6926071  24.8148543  65.7305737
  59.9795502  25.5354126  65.6181437  48.2616492  20.3135086  58.4190895
  47.9954907  19.4974203  58.5781885  48.2755056  20.3588242  57.5486410
  48.2241214  20.1991991  58.3144377  65.2397886  10.6412901  56.4533328
  65.8823794  10.7111006  57.0395244  65.4920907   9.9742124  55.9512870
  65.3720018  10.5539250  56.4660608  52.1674239  15.1120171  45.0342653
  51.4532416  14.8258350  45.4465085  52.6518208  15.4516797  45.6749040
  52.1333602  15.1201820  45.1898288  53.0115098  13.8513465  61.0657902
  52.3186895  13.3810444  61.3118634  53.6275426  13.6251769  61.6399610
  52.9999628  13.7480596  61.1867055  60.0499870  27.5517508  59.1813506
  59.2515116  27.3117008  59.4387375  60.4985881  27.6031901  59.9280554
  59.9974481  27.5239899  59.3298431  68.4544749  20.3179993  53.1023538
  69.1161183  19.7570662  53.0019446  67.8136161  19.8232024  53.4276229
  68.4573617  20.1616402  53.1355878  59.3421557  23.6150125  45.4104461
  59.7572705  23.2835149  44.7188957  58.5113487  23.3819027  45.2824598
  59.2809566  23.5321381  45.2895308  48.6709906  21.0993866  55.7002639
  48.4885479  21.0740752  54.8474931  49.4059575  21.5692804  55.7391548
  48.7523970  21.1655228  55.5800557  64.7409580  21.3345376  52.8435527
  64.9765169  21.4790575  52.0162377  64.8899144  22.0987784  53.2367040
  64.7975383  21.4684430  52.7799130  51.7355657  17.8178869  62.2084748
  52.4595630  17.8031899  62.6949642  51.8371794  18.5274224  61.7106716
  51.8573866  17.9203572  62.2063534  66.5700037  20.1747042  50.6805130
  66.9008254  20.7074682  50.0745225  67.1433125  20.2285929  51.3367081
  66.7033716  20.2616610  50.6882912  59.1100607  21.2977953  67.0733695
  58.3173588  21.6121465  67.2586314  59.2249534  21.5129422  66.2354479
  59.0096017  21.3761790  66.9772029  61.7831926  18.0211944  51.3628710
  61.8778780  18.7601238  51.8168336  61.1590769  17.5929420  51.7963275
  61.7040956  18.0673265  51.4936858  60.0384400  21.1998157  62.0118991
  60.6123261  20.5625401  62.1667555  59.9599203  21.2002239  61.1428649
  60.1117634  21.1063268  61.9065402  48.6380816  17.9787366  55.8501706
  49.2154319  17.8423817  56.4893951  47.9394878  17.5223151  56.1047290
  48.6201837  17.8909633  55.9823995  62.0354947  19.8660684  44.5965662
  61.9535110  19.9362871  45.4620649  62.6734668  20.4290428  44.4049403
  62.1174784  19.9599655  44.6955612  55.3948118  19.6321422  54.0640189
  55.1367362  18.7993157  54.0371488  55.4496601  19.8579035  53.2232689
  55.3647896  19.5419193  53.9360326  60.4749168  11.7349873  54.1644281
  59.7705495  11.2459058  54.3228201  60.5234143  11.7472347  53.2932726
  60.3779220  11.6639521  54.0583621  54.3682830  17.1859185  54.5505084
  53.7932422  17.3451353  55.1869044  53.9918507  16.5494594  54.0873534
  54.2285643  17.1156997  54.5759642  58.0356119  15.6582534  59.4097462
  57.6470552  15.2336752  58.7549653  57.3710817  15.9064683  59.9174489
  57.8803047  15.6321255  59.3885330  67.6779388  15.4157539  52.1845292
  67.4215953  14.6037480  51.9943175  68.5208702  15.4235106  51.9575479
  67.7645414  15.2969536  52.1230109  44.1139649  16.8299259  52.5649524
  44.1999901  16.4531128  53.3463054  44.7415447  16.4559705  52.0869482
  44.2196200  16.7184741  52.6095001  61.8582481   9.3557163  56.9221446
  62.2392992   8.6735334  57.3089320  61.0545765   9.0666765  56.7397111
  61.7958942   9.2124211  56.9525502  59.1395057  19.8881138  47.6074269
  59.9535696  20.1796031  47.4957040  59.0754199  19.2341001  47.0332562
  59.2497796  19.8346333  47.5063106  65.3604547  22.5707135  62.0203845
  65.1243185  21.7395199  61.9015905  66.0047776  22.5192742  62.6058689
  65.4199218  22.4404823  62.0889738  55.0102966  23.3602656  52.7346581
  55.6476912  23.1214403  53.2798374  55.4358037  23.5639815  51.9999742
  55.1679132  23.3553666  52.7063738  49.7015608  25.5990992  56.6180885
  49.7419753  25.8705843  55.7900664  50.2610132  26.1232900  57.0338673
  49.7898954  25.7166747  56.5572773  55.6505781  18.5804946  47.0721470
  56.0350933  18.3612652  47.8238016  55.4017401  19.4067891  47.2022547
  55.6707853  18.6703092  47.2022547  55.8174321  11.8611361  66.7884055
  55.5027762  12.6310924  66.5253617  55.4964254  11.2981617  66.2036282
  55.7233240  11.8921630  66.6625405  66.3840968  22.3551583  58.0832139
  66.0786785  23.0879640  58.4445455  65.6647184  21.9489513  57.8024925
  66.2328310  22.4033316  58.0945276  57.3924437  23.8375079  54.4140367
  57.4663446  23.6750250  55.2682217  58.2093944  24.0265268  54.1700849
  57.5240796  23.8411821  54.5038393  72.0842760  18.9944584  57.4100483
  72.0167260  19.0140543  56.5403070  72.0698423  19.8374911  57.6356154
  72.0721517  19.1218319  57.3152960  53.3706218  10.2501882  52.4030251
  52.5028643  10.3224482  52.4687860  53.6581422  11.0523961  52.5918226
  53.2845966  10.3796029  52.4405018  62.4939107  10.3979742  60.7341573
  63.2392699  10.2089552  60.3204998  62.0776411  10.9237980  60.1755429
  62.5424081  10.4481887  60.5906146  55.9329023  26.8009822  49.1453841
  56.2227322  26.4098803  48.4213067  56.6632504  26.9826526  49.5859116
  56.0835907  26.7703635  49.1036648  69.8701378  17.7688970  55.6847078
  70.4209299  17.1357039  55.9244170  69.8545493  18.3004363  56.3762582
  69.9486574  17.7537918  55.8225936  56.5223768  21.6027567  60.2306971
  56.0235462  22.3143335  60.3091860  57.3323993  21.9228234  60.1925134
  56.5679875  21.7554416  60.2363540  53.8734939  28.7777204  52.2113990
  53.6535234  28.4874559  53.0040657  53.6529461  28.1192159  51.6831903
  53.8082533  28.6376912  52.2502899  63.5729784  16.0085304  54.7951674
  63.2294550  15.2875639  55.1458924  63.6722826  15.7999155  53.9530032
  63.5371827  15.8709507  54.7223354  56.0402894  30.1506594  50.9944683
  56.6926953  29.6183036  51.2235709  55.3428503  29.7975246  51.3812557
  56.0333612  30.0196117  51.0856851  52.9884159  22.5045772  50.4012057
  53.7430127  22.8858811  50.6147520  52.3954772  22.9556915  50.8558754
  53.0120873  22.6274599  50.4994936  64.0342813  22.4711008  50.3375662
  64.6000845  23.1304218  50.2534205  63.3870716  22.8160706  50.8092064
  64.0221569  22.6192949  50.3948419  55.4490826  14.4608612  65.5269269
  54.6390602  14.7666392  65.4159112  55.9265513  15.1814194  65.6421853
  55.3994305  14.6123213  65.5276340  54.3082386  23.6754333  55.7752173
  53.7863139  23.8154625  56.4604037  54.6956406  22.9164997  55.9654290
  54.2886087  23.5839857  55.9053249  51.2973570  13.7260142  49.8447127
  51.0098366  13.3561412  49.1079075  51.9844038  14.1954997  49.5830832
  51.3562467  13.7407111  49.6962203  60.5049391  25.4149792  49.7612741
  60.2636067  24.6817653  49.3539806  60.6850724  25.9636649  49.1079075
  60.4957015  25.3872183  49.6042964  55.7348712  20.7058352  51.1733664
  55.5391494  21.3133086  50.5793967  55.9583057  20.0126296  50.6925337
  55.7383353  20.6935877  51.0149744  54.1327242  17.5913090  51.2914532
  54.8549893  17.7554248  50.8318338  53.6535234  18.3122755  51.1853872
  54.1690972  17.7211319  51.2080146  62.0920749  13.9276889  56.6711217
  61.2531850  13.9538168  56.4349480  62.1625116  14.5747624  57.2516563
  61.9789143  14.0273014  56.7220334  51.7834858  19.9971162  60.3968672
  52.2955955  20.2755416  59.7477432  51.4971201  20.7360456  60.7631485
  51.8169721  20.1473516  60.3558550  60.5390027  10.8262266  51.4038833
  61.2416380  10.6270014  50.9258791  60.2734216  10.0538208  51.7107676
  60.6036660  10.6825232  51.3784274  65.9678273  19.1344875  53.9572459
  65.8812248  19.2900301  54.8107237  65.5128753  19.7782951  53.5831864
  65.8881530  19.2520630  54.0279565  48.8701765  14.5041354  50.6932408
  48.9717901  15.3067516  51.0213384  49.6657651  14.3028690  50.3955489
  49.0029670  14.5927253  50.6967764  55.3018584  12.0897551  60.4569713
  55.1101781  12.1052685  61.3069137  56.1517180  12.2861225  60.4336368
  55.3994306  12.1211902  60.5793008  49.6865497  14.6188532  58.4353530
  49.5450988  13.7672473  58.5598038  49.9706060  14.6617193  57.6115736
  49.7073343  14.4988282  58.3321154  59.8404089  16.4555623  52.5798018
  59.5938803  16.3751373  53.4134807  60.1689212  15.6709090  52.3860546
  59.8525333  16.3281888  52.6745541  63.7352138  23.1638982  56.3684799
  63.5966497  23.8620028  56.8733542  62.9552136  23.0087638  56.0120981
  63.5995365  23.2439148  56.3911074  62.0730223  19.4635357  62.6207181
  62.0678261  18.5915174  62.6249607  62.7791217  19.6623526  62.1476637
  62.1775227  19.3639231  62.5514216  55.8001116  19.1912341  61.9921001
  55.9444492  19.7713549  61.3564111  56.1476765  19.5688638  62.6970856
  55.8728578  19.3333045  62.0019996  57.9721034  18.3902509  59.7746133
  57.2244348  18.5833524  59.3694411  58.1262559  17.5647729  59.5370254
  57.8843461  18.2967621  59.6791539  54.8728871  27.3815113  58.8582028
  55.0218435  26.8218029  58.2055432  55.6528873  27.4607115  59.2414547
  55.0102965  27.3100678  58.8178977  65.2305511  22.5217236  47.1301299
  64.8512319  21.7354374  47.1230588  64.5671756  23.0704093  46.9872943
  65.0763985  22.4862060  47.1082095  57.3982172  27.5529756  60.1366519
  57.3225843  26.8838566  60.6917307  57.3272031  28.2547544  60.6507185
  57.3762779  27.5574663  60.2943367  58.2122811  12.2853060  60.6641537
  58.6695425  13.0177035  60.7914329  58.2879139  11.8619525  61.4228792
  58.2913781  12.3310298  60.7942613  50.4555802  12.5318880  61.7530980
  49.9197991  11.9199238  62.0691747  50.5173567  13.1067016  62.4064647
  50.3851435  12.5265808  61.8966407  58.0552419  26.0730755  50.9690125
  58.8202310  25.8040398  50.6472789  57.9530509  25.5880765  51.6860188
  58.1533914  25.9620319  51.0269952  56.0905189  14.2755164  57.5083361
  55.3001263  14.0946624  57.8300696  56.4865811  13.4982117  57.4913655
  56.0322065  14.1342625  57.5535909  60.5771079  23.1042938  42.9490074
  61.3444065  23.1643063  42.5395926  60.1302388  22.5323380  42.4646393
  60.6244507  23.0279514  42.8167784  61.4748875  21.9097594  55.2342806
  60.7993877  21.6782827  55.7356193  61.4841251  21.3018777  54.6084911
  61.3767379  21.7856519  55.2158959  58.6043019  16.7515423  61.9906859
  58.5402160  17.6125380  61.8626996  58.7440207  16.4347416  61.1902411
  58.6158489  16.8315590  61.8535072  63.4765610  24.7662727  47.4652984
  63.5585447  25.5729713  47.1414435  63.9615352  24.7858686  48.1893758
  63.5602767  24.8883389  47.5239883  57.2862113  19.4447563  56.1323062
  56.8624362  19.6452062  55.3962081  57.1106968  18.5976411  56.2447362
  57.1972993  19.3496344  56.0396752  56.7873806  30.9598076  58.5944520
  57.2769737  30.2608865  58.4120184  56.2158039  30.6621946  59.1820577
  56.7758336  30.8124299  58.6545560  52.5744558  19.9399614  51.5651035
  52.7309177  19.8746417  52.4207027  52.9145151  20.7148167  51.3529714
  52.6477793  20.0448812  51.6605629  59.1123702  19.3157498  50.4344398
  59.6539248  18.8127879  50.8983019  59.4270261  19.2622692  49.6233883
  59.2388099  19.2336919  50.3828210  62.9840810  23.5260145  67.5471310
  63.7975675  23.2545294  67.7076443  62.8235776  23.2267685  66.7431506
  63.0810758  23.4415071  67.4516716  57.2810152  24.7074849  47.7184426
  57.3502972  23.8489388  47.8577427  58.0598607  24.9246730  47.3903451
  57.4063002  24.6127713  47.6901583  60.2612972  14.2093802  60.4866699
  60.4754941  13.5704716  59.9330053  59.6446871  14.6539626  60.0574560
  60.2018301  14.1803946  60.3417130  61.6717640  27.1312550  51.9320919
  61.2797431  26.8279266  51.2143786  61.8270712  27.9681640  51.7425873
  61.6371230  27.2096387  51.7977417  49.1478819  17.1234564  51.8811802
  49.5277784  17.5419109  51.2172069  48.5734184  17.7048020  52.1880645
  49.1190144  17.2712423  51.8288543  62.4252060  15.8182867  61.4250006
  61.6128741  15.5108758  61.5063178  62.8841994  15.3381867  61.9892718
  62.3732445  15.7019360  61.5204600  61.8357314  23.6962539  51.8726950
  61.4771969  23.8677182  52.6490982  61.3496025  24.1575745  51.3154948
  61.7116011  23.7901510  51.9052219  59.6527700   7.3193738  55.4754041
  58.7821258   7.2932459  55.4287351  59.9068042   7.1470930  54.6579887
  59.5621261   7.2903881  55.3474178  56.6245680  19.3761705  44.4127184
  56.9138205  20.1526587  44.6870759  56.7117479  18.8650436  45.1141684
  56.6799936  19.4153623  44.5569682  59.5205567  17.2242939  66.2078708
  59.9905198  17.8485055  66.5946582  59.5667447  16.5559914  66.7671923
  59.5973443  17.2177619  66.3478779  56.6776841   9.3299966  56.9327512
  56.1615329   8.6380158  57.0579091  56.1170770   9.9970743  56.8790110
  56.5183354   9.3263224  56.9433578  58.7469074   9.8692926  58.7620364
  58.3600828   9.8941958  59.5433894  58.2602012   9.3034605  58.3094881
  58.6181583   9.7888677  58.8108268  62.9962054  24.5866435  62.8194151
  63.6341774  24.0926631  62.4856607  62.3536145  24.5143836  62.2346378
  62.9956280  24.5025444  62.6836506  64.7219054  16.4355581  57.3860066
  64.2946662  16.3481930  56.6308166  64.0845107  16.5433357  57.9714911
  64.5648661  16.4388241  57.3605508  58.4126216   6.7559912  61.0530624
  59.0419334   7.2920212  60.7751695  58.5812079   6.6637271  61.9044190
  58.5304011   6.8221274  61.1379152  58.2140131  11.5431106  63.3257036
  59.0413560  11.2716255  63.3815650  58.2347977  12.3391948  63.6820854
  58.3392981  11.6210861  63.3872219  63.0516310  25.2786244  59.4599508
  63.8408689  24.9275308  59.5801589  63.2259908  26.0922632  59.1976141
  63.1936592  25.3472101  59.4387376  52.7909621  18.6894969  56.5127296
  51.9497627  18.5898843  56.7206190  52.9999629  19.4590450  56.8641617
  52.6974313  18.7887013  56.5954611  50.2685188  16.3114506  54.3412047
  49.8741886  16.3857518  53.5662157  49.7125305  16.6972453  54.8920409
  50.1288000  16.3796281  54.3079707  61.9050135   9.2895800  54.0215926
  62.1099728   9.2218108  54.8672923  61.5776559  10.0954621  53.9537103
  61.8865382   9.3981741  54.1375581  56.6026286  16.6176368  55.7624894
  56.2989423  16.0632357  56.3635302  55.9005706  16.7968578  55.2752928
  56.4542495  16.5621151  55.7794600  55.6592383  13.9276888  50.3269596
  55.9352117  13.2095801  49.9147163  56.2591052  14.5261808  50.1190702
  55.7885647  13.9097259  50.2350357  54.6644637  23.8326089  60.4696992
  54.5564992  23.8428151  61.3359050  54.8740418  24.6580870  60.2801946
  54.6794748  23.9567164  60.5701083  65.1583822   9.8427564  53.5018691
  64.5458136  10.3297967  53.8872423  65.2547997   9.1671055  54.0456343
  65.0821720   9.8145873  53.6397550  59.1602903  11.5990406  48.6016191
  59.6146650  11.7700966  49.3264035  59.6342949  10.9858516  48.2013967
  59.2971223  11.5341291  48.6489952  52.6818429  21.0838732  57.9318929
  52.0906362  21.7248230  57.9021944  53.4439452  21.5076349  57.9050229
  52.7066689  21.2414570  57.9234077  53.0779051  12.2440729  58.5986947
  53.5380533  12.3179659  59.3362071  53.1235158  13.0421983  58.2486768
  53.1529607  12.3734876  58.6559703  54.7262401  12.9107424  63.1658974
  54.3347966  12.2640771  63.6014752  54.8948264  13.5018859  63.7853229
  54.6933312  12.9021692  63.3221680  68.8008850  20.9144501  58.9296208
  68.8591974  21.3631150  59.6756184  68.1675318  21.3243314  58.4926288
  68.7160145  21.0418236  58.9748756  62.4407945  26.5348043  55.3650954
  62.2427634  27.0238858  54.6707165  61.8195656  26.7389285  55.9435087
  62.3195509  26.6364581  55.3474177  56.5015923  18.3032940  49.7061198
  57.2457968  18.6907216  49.9444148  56.6476619  17.4590365  49.8701686
  56.6326508  18.2363413  49.7655168  58.4195499  10.0983199  54.7393059
  57.5731544  10.2706007  54.6134409  58.4166631   9.2932543  55.0758888
  58.2942649  10.0044228  54.7704186  59.4893799  13.8758413  55.6055117
  59.0153753  13.3500175  56.1160428  59.8611935  13.3287886  55.0369979
  59.4743688  13.7174410  55.5970265  49.8666829  15.8729920  60.9738663
  50.7292442  15.7725629  60.8875993  49.5358612  15.2924629  60.4124235
  49.9452026  15.7721547  60.8784069  65.7530530  18.9360789  57.0161898
  65.5128753  18.0967204  57.0204324  66.2322537  19.0160956  57.7402671
  65.7882713  18.8242189  57.1236700  61.4177299  14.7694968  48.6680871
  60.8900317  14.8523712  47.9786580  61.8773007  15.5112839  48.6645516
  61.4079149  14.8915630  48.5655566  67.7535717  15.7162246  54.9691157
  67.5145487  15.6758080  54.1311942  67.9169618  16.5633398  55.0956878
  67.7426020  15.8354331  54.8644639  64.3581747  20.1012195  60.8996202
  65.0815946  19.6484722  60.7207222  64.0931709  20.3816861  60.1168530
  64.4263020  20.0763164  60.7574918  53.2268615  14.6972369  57.6349081
  52.6021685  14.7090761  57.0275034  52.8914210  15.1732544  58.2840322
  53.0854107  14.7690886  57.6405650  53.4110364  13.0397487  43.6921766
  53.0623168  13.6917213  44.1553316  52.9306810  13.0254600  42.9645638
  53.2880608  13.1340541  43.6532858  49.9394291  22.7572829  59.0752846
  49.4094215  22.0665268  59.1247820  50.2119384  22.7483014  58.2465554
  49.9019013  22.6539961  58.9600262  60.9714381  23.3398531  47.7990528
  61.6948580  23.8056644  47.6555102  60.5314972  23.4072141  47.0488125
  61.0130073  23.4182368  47.6675310  60.1400536  20.1996074  59.0491217
  59.5257529  19.6554124  59.3439853  60.6567821  19.6860310  58.5697033
  60.1256199  20.0432483  59.0215446  59.3796834  21.2700344  56.7835516
  58.9524442  20.6450062  56.3500951  59.3721778  20.9875266  57.6094523
  59.3155975  21.1353124  56.8415343  52.4959361  16.3065517  59.8523950
  52.6552847  15.5508841  60.2575672  52.3152254  16.8556456  60.5064688
  52.4924720  16.2759331  60.0086656  60.4379664   8.4726752  60.4074739
  59.9420225   8.6690427  59.7166306  61.1948726   8.8719421  60.2363541
  60.4766488   8.5604486  60.2794876  57.7082543  12.1469098  56.9978050
  57.7325030  11.6129211  56.3090830  57.9594017  11.6386407  57.6603640
  57.7492462  11.9930002  56.9942695  45.2190133  19.4300593  56.4321194
  45.1133582  19.3847438  55.5673278  44.4690353  19.7754374  56.7135479
  45.0925736  19.4741501  56.3458524  53.9883865  10.8739916  56.3783794
  54.0282237  11.3749123  57.0918502  53.1633530  10.9650310  56.1089717
  53.8723391  10.9621733  56.4434332  56.1713478  20.4400656  64.4804089
  55.3209109  20.5772371  64.6161734  56.3341606  19.7064435  64.9251790
  56.0697342  20.3514758  64.5659688  55.4098229  17.3900426  58.6757693
  54.5790158  17.5574244  58.4692941  55.3549746  17.0136377  59.4606579
  55.2787644  17.3590158  58.7606221  53.2182012  10.8809319  64.3114104
  53.8434715  10.3371452  64.5843536  52.7632492  10.4004237  63.7421894
  53.2430273  10.7298801  64.2675698  53.7834273  15.6656018  49.2047811
  53.9237234  16.1628482  49.9076452  54.2816805  14.9642312  49.3462025
  53.8775354  15.6357997  49.3299390  53.8134495  16.5323129  46.5340388
  54.4479575  17.1283554  46.4689850  53.8960106  16.2326586  47.3486258
  53.9191046  16.5764037  46.6443474  66.7917061  19.0638606  59.4026752
  67.3834901  19.7035857  59.4344950  67.2276055  18.3661643  59.6918819
  66.9435492  19.0556957  59.4507585  55.3913478  12.4637104  46.5085830
  55.7129319  11.9840187  45.8545092  55.6540422  13.2736750  46.3176641
  55.4779503  12.5127002  46.3841322  58.6210451  23.4855979  60.0284646
  58.1135542  24.0391825  60.4725276  58.3237097  23.5464269  59.2103420
  58.5015336  23.5762290  59.9733103  60.7872633  11.8509298  58.8709309
  61.2127704  11.3981825  58.2592835  60.1729626  11.2969369  59.1474096
  60.7601278  11.7023274  58.8214334  50.3187483  18.7290970  49.8029934
  50.8279712  19.3255477  50.1841239  50.7921755  18.4616943  49.1206353
  50.4630859  18.7776785  49.7584456  61.2318231  27.4019236  47.9588589
  60.5147541  27.2280099  47.4935827  61.8824969  27.1671809  47.4264075
  61.2220081  27.3415029  47.8117807  59.2266856   8.3224398  52.2799886
  58.5835174   8.1722044  52.8485024  58.8866263   8.0766743  51.5148990
  59.0811933   8.2636521  52.2502901  63.8166202  16.2783825  51.7029894
  63.1457392  16.8213527  51.5742960  64.5105952  16.7478680  51.4611589
  63.8195070  16.4282096  51.6485422  57.8652936  28.4180537  56.9341653
  57.6418590  27.6599366  57.3025679  57.3762779  28.4478558  56.2122092
  57.7596385  28.3102761  56.8818394  63.9794330  12.7339708  54.6120268
  64.3321940  12.3069431  55.2866066  63.1209131  12.6490552  54.7421344
  63.9043774  12.6584449  54.7315278  52.6778015  15.3647228  52.6703114
  51.9590004  15.7811361  52.9375978  53.0490377  15.9301467  52.1194752
  52.6269946  15.5096510  52.6285921  61.9777595  15.9975077  58.5605110
  61.9575523  15.8158372  59.4139889  62.0256796  16.8687096  58.5364694
  61.9812236  16.0991615  58.6828405  59.9223925  22.5862269  64.4853586
  59.8819780  21.9411946  63.8998742  60.7347244  22.5298886  64.7978998
  60.0367079  22.4821236  64.4450536  59.8796687  27.7971080  55.1402354
  59.4812970  27.9073351  54.3723174  59.2647907  28.0053147  55.7228914
  59.7295576  27.8444648  55.1133653  58.4524589  14.4045228  48.0076494
  57.8589428  14.7262225  47.4561061  58.4899867  13.5586323  47.7997600
  58.3698978  14.3269556  47.8959265  65.4118390   7.8558120  55.5404580
  64.9049254   7.1487260  55.4725758  66.2085823   7.5251309  55.6705657
  65.4545629   7.7031272  55.5503575  61.3282406  14.3624733  51.4378244
  61.0996099  14.3857434  50.5956602  61.5880482  13.5382200  51.5573254
  61.3328594  14.2440813  51.3303442  55.6101634  16.2159206  61.0403344
  55.0980537  15.6080389  61.3988375  55.4381130  16.9315798  61.5077320
  55.5091271  16.2322505  61.1619568  50.4567349  14.6596781  63.6905706
  50.2869939  15.3198156  63.1453913  50.0133299  14.8703342  64.4118195
  50.3666682  14.7882763  63.7167335  54.3827168  12.9001279  52.7332440
  54.8584534  13.2618359  52.0982621  53.8815768  13.5557746  53.0132582
  54.3792527  13.0495468  52.6809181  67.6138530  22.3723047  48.5245445
  67.9972135  23.1214403  48.7543542  66.8182643  22.6188867  48.2657434
  67.5532312  22.5192741  48.5203018  59.4870704  14.1383450  63.4805600
  60.0442135  13.9097260  62.8484065  59.1631769  14.8989116  63.2040812
  59.5217115  14.2167287  63.3462097  47.3569413  17.5643647  58.9494196
  46.8096133  16.8944292  59.0675064  48.1461791  17.1973494  59.0137663
  47.3921597  17.4108633  58.9762896  57.2053822  17.2251104  64.4457607
  57.9565149  17.5402780  64.7597161  57.3976398  17.0230274  63.6191529
  57.3445236  17.2418485  64.3701002  64.0539112  13.3524670  51.6881402
  64.0533338  13.1973326  52.5465679  63.8495292  14.1987657  51.6322788
  64.0238890  13.4545291  51.8069342  46.1156383  16.7764454  56.1040219
  45.9378144  16.3241063  56.8295134  45.8275405  17.5790616  56.2878696
  46.0469336  16.8287012  56.2383722  61.7779964  18.0322172  55.3417609
  62.2733629  17.3145167  55.3021629  60.9679740  17.7292969  55.2272096
  61.7323857  17.8819818  55.3191335  57.2238575  21.8819985  47.4914614
  56.4149898  21.5586658  47.4447923  57.7313484  21.1753207  47.4242862
  57.1788242  21.7301301  47.4744908  47.8528853  19.3092178  53.2161978
  46.9874372  19.2977869  53.1044749  47.9527668  19.1222401  54.0633117
  47.7403020  19.2798239  53.3250922  63.8431783  20.7825859  58.0294738
  64.2686854  20.2600281  57.4765163  63.4788703  21.3806697  57.5083361
  63.8518385  20.7936086  57.8703748  53.4785863  29.0790077  56.7892083
  53.7932421  29.8926465  56.7969865  53.8879276  28.6940295  57.4574242
  53.5853960  29.1418779  56.8896175  60.4310382  24.4960123  54.3595895
  60.9021560  25.2100386  54.5285880  60.7670561  23.8958874  54.8955765
  60.5505497  24.5131588  54.4628271  62.5187367  26.1061437  66.5387967
  62.6284332  25.3169997  66.8944715  62.8478263  26.0167373  65.7362305
  62.5839773  25.9767290  66.4730358  57.3479877   9.2687594  61.3153990
  57.4807783   8.4718587  61.6434966  57.7325030   9.7953997  61.8952266
  57.4236206   9.2287511  61.4497493  61.0684328  24.2878058  61.1223588
  60.5205274  23.6635941  60.8543653  61.5297357  24.4772330  60.4067667
  61.0551538  24.2237108  60.9774019  60.4212232   6.1917920  57.9135083
  59.6158196   6.0815650  58.2302922  60.2918968   6.2930376  57.0564949
  60.2832365   6.1901590  57.8343124  63.8778193  12.3563412  58.5074780
  63.2941182  12.8572619  58.0952348  64.1982487  11.8492968  57.8739104
  63.8391368  12.3555247  58.3533287  56.4172992  11.2704007  48.7833455
  57.2388686  11.4402320  48.5415150  55.9542643  11.4251268  48.0599753
  56.4704154  11.3185740  48.6405099  55.0068324   9.2646769  59.5631884
  55.5512737   8.9237896  60.1536226  55.0605260  10.1232231  59.7053168
  55.0957443   9.3402028  59.6713757  50.8198883  23.0263185  56.4370692
  51.4243740  22.9859019  55.8084512  50.6126195  23.8734337  56.4674748
  50.8787780  23.1451188  56.3486808  60.6342655  25.2929130  57.6532929
  61.4541029  25.1492096  57.9149224  60.3536732  25.9175329  58.1949367
  60.7139398  25.3639482  57.7720869  46.0550165  22.0097803  56.3069615
  45.9574443  21.1994074  56.6159672  46.8379035  21.9889596  55.9215883
  46.1566301  21.8864893  56.2956478  77.1056305  32.9493982  50.6175805
  77.0750310  33.8038619  50.7894075  77.7037654  32.6489275  51.1761949
  77.1893463  33.0310479  50.7250608  70.3055990  32.0369633  55.3728736
  69.4493886  32.1978131  55.4237853  70.3523644  31.1661697  55.3933797
  70.1855101  31.9320435  55.3834802  64.6897130  41.5732351  51.1365967
  63.9380029  41.1947889  50.9082013  65.1383141  41.6050784  50.3884778
  64.6446797  41.5217958  50.9923470  73.6149707  38.3056159  64.9789192
  74.3216474  37.8108189  65.1076126  73.8037642  38.7465240  64.2491850
  73.7477612  38.2974509  64.8898237  70.1422090  41.9957720  46.5651515
  69.8073458  42.6734642  46.1295737  70.6548960  41.6063032  45.9768386
  70.1687671  42.0382299  46.4138306  69.6826381  43.9471989  52.5062626
  70.0665760  44.5158888  51.9667401  69.6185522  43.2221499  52.0268442
  69.7299808  43.9247452  52.3556489  73.1507811  34.0961677  58.0160388
  73.6963771  34.7746764  58.0754357  73.0924687  33.9549138  57.1561969
  73.2223725  34.1753679  57.8972448  66.2681886  41.5850743  53.4028740
  66.3692249  40.7751097  53.7125868  65.6723631  41.4907689  52.7728418
  66.1954425  41.4515771  53.3554978  74.9272880  35.5246284  48.8894115
  74.8112406  36.2753970  49.3186253  75.7228766  35.2670237  49.1390202
  75.0277469  35.5981131  48.9898207  66.1082625  46.5028332  54.8043596
  66.7520081  46.9441496  55.1939754  66.4338881  45.6981758  54.7173855
  66.2514454  46.4493527  54.8489073  61.7637018  29.7756760  55.9265381
  61.1442049  29.1849407  55.7575396  61.6620881  30.3668195  55.2929705
  61.6574693  29.7760843  55.8070371  66.8103205  39.5140307  50.1763458
  67.1319046  40.0545514  49.5724766  67.4575302  38.9437078  50.3085747
  66.9529260  39.5099482  50.1070493  68.8604913  31.5156302  50.2597844
  69.5585078  31.6944430  50.7519308  69.1757246  30.9926641  49.6368234
  69.0100250  31.4650074  50.2399855  61.4906151  33.3209042  58.1708950
  61.3664848  33.9071487  58.8058769  62.1424435  32.8269238  58.4721225
  61.5679800  33.3347846  58.3094880  69.0492849  37.9026747  50.2477636
  69.4886484  37.2943848  50.6932409  68.8997512  37.5234120  49.4763101
  69.0914314  37.7565218  50.1996803  66.5164492  36.4970759  57.4496461
  67.1613494  36.0043202  57.1307410  66.7566269  36.6395545  58.2762540
  66.6475077  36.4448201  57.5245995  69.0550583  39.3425665  57.1003354
  69.3373826  38.5477070  56.8790110  69.7836743  39.8206252  57.1208415
  69.2040147  39.2960262  57.0706369  67.0331777  26.8848699  54.3419119
  66.7035107  27.3359842  53.6722818  66.3576779  26.8064862  54.8892125
  66.8842213  26.9399834  54.3242342  72.6502185  36.2553928  47.2008405
  72.5653480  37.1114895  47.3457974  73.1386568  35.9798252  47.8690564
  72.7091082  36.3411250  47.3210487  74.2408185  22.8734222  52.5868730
  73.9261626  23.5637700  53.0189152  73.7235126  22.8179004  51.8854230
  74.1172655  22.9669110  52.5465679  73.5820618  32.8738722  48.7006140
  73.0532090  33.0898356  49.3603446  74.1045638  33.5674861  48.6207110
  73.5809071  33.0081859  48.7861739  79.0368671  38.4485027  54.0739185
  78.2066374  38.6595671  54.2372601  78.9877924  37.6222081  53.7981468
  78.9075407  38.3574633  54.0576550  65.4720226  36.7701939  47.5013608
  64.8877441  37.2751971  47.9079472  65.0690321  36.5444326  46.7610200
  65.3259530  36.8110188  47.4518633  67.0978409  41.2788881  56.9087094
  66.5805351  40.9196296  56.3048402  67.7952800  40.7551056  56.9193160
  67.1243990  41.1486569  56.8217353  70.7542001  41.7283695  62.8703267
  70.8425347  41.5409836  63.7181478  71.1831713  41.0821125  62.4708114
  70.8304103  41.6046703  62.9375019  68.3212461  41.0114855  61.8520929
  67.7583295  40.5987465  62.3760591  69.0833484  40.9367761  62.2714073
  68.3506909  40.9392256  61.9913930  69.9297441  33.0167591  45.9782529
  70.1693444  33.2245575  45.1657872  70.2513282  32.2125100  46.0871473
  70.0134599  32.9281693  45.8743082  65.2387731  24.9460987  49.8242067
  65.9933699  25.3139304  49.5859117  65.0615266  25.3200541  50.5921246
  65.3242209  25.0559175  49.9026955  63.8808452  43.0012876  54.4557560
  64.5829031  42.4864865  54.5130316  63.8005935  43.3287028  55.2604435
  63.9732213  42.9727103  54.5830352  78.5322630  31.0955428  57.8689606
  77.6951051  31.1657615  58.1037201  78.5010861  31.0979922  56.9963908
  78.4040912  31.1065655  57.7749154  64.9287359  33.2388463  63.5837975
  65.1007862  33.1294358  64.4323256  65.4656716  33.8842869  63.3469167
  65.0332363  33.3180465  63.6743071  63.5944796  27.3531306  46.5220180
  63.4120369  27.5703187  45.6961173  64.4570409  27.4670319  46.5778794
  63.6949385  27.4021204  46.4074667  63.2059228  39.1919228  53.9643168
  64.0448127  39.4242161  54.0116929  63.2370997  38.3223540  53.8950203
  63.3340945  39.0976175  53.9607812  63.8311931  39.6120103  58.2656473
  64.3710156  39.4691235  58.9359846  63.1481877  40.0116854  58.6340499
  63.8104084  39.6499774  58.4190895  69.2744515  24.3557717  49.5569204
  70.0030675  24.1773672  49.1107360  69.3639408  25.1975797  49.7676382
  69.3951177  24.4541595  49.5222721  73.2552815  35.2911104  53.4601498
  74.0110330  35.7242618  53.4990406  73.3615140  34.6415874  54.0336134
  73.3822986  35.2588588  53.5499523  76.2932987  39.1184381  54.2103901
  75.8568218  39.1221124  54.9662872  75.9595902  39.7989880  53.7783478
  76.1795607  39.2196837  54.2584733  70.8662060  41.1592714  65.5347051
  71.6502477  41.2723562  65.9002793  70.6658655  40.3333851  65.7305737
  70.9528086  41.0539434  65.6181437  59.2349076  35.8320394  58.4190895
  58.9687491  35.0159511  58.5781885  59.2487640  35.8773550  57.5486410
  59.1973798  35.7177299  58.3144377  76.2130469  26.1598209  56.4533328
  76.8556378  26.2296314  57.0395244  76.4653490  25.4927432  55.9512870
  76.3452602  26.0724558  56.4660608  63.1406823  30.6305479  45.0342653
  62.4265000  30.3443658  45.4465085  63.6250791  30.9702105  45.6749040
  63.1066186  30.6387128  45.1898288  63.9847682  29.3698773  61.0657902
  63.2919479  28.8995752  61.3118634  64.6008009  29.1437077  61.6399610
  63.9732212  29.2665904  61.1867055  71.0232453  43.0702816  59.1813506
  70.2247699  42.8302316  59.4387375  71.4718465  43.1217209  59.9280554
  70.9707065  43.0425207  59.3298431  79.4277333  35.8365301  53.1023538
  80.0893767  35.2755970  53.0019446  78.7868745  35.3417332  53.4276229
  79.4306200  35.6801710  53.1355878  70.3154140  39.1335433  45.4104461
  70.7305289  38.8020456  44.7188957  69.4846070  38.9004335  45.2824598
  70.2542149  39.0506689  45.2895308  59.6442489  36.6179174  55.7002639
  59.4618062  36.5926060  54.8474931  60.3792158  37.0878112  55.7391548
  59.7256553  36.6840536  55.5800557  75.7142163  36.8530684  52.8435527
  75.9497753  36.9975883  52.0162377  75.8631727  37.6173092  53.2367040
  75.7707967  36.9869738  52.7799130  62.7088241  33.3364177  62.2084748
  63.4328213  33.3217207  62.6949642  62.8104377  34.0459532  61.7106716
  62.8306450  33.4388880  62.2063534  77.5432620  35.6932350  50.6805130
  77.8740837  36.2259990  50.0745225  78.1165708  35.7471237  51.3367081
  77.6766299  35.7801918  50.6882912  70.0833190  36.8163261  67.0733695
  69.2906171  37.1306773  67.2586314  70.1982117  37.0314730  66.2354479
  69.9828601  36.8947098  66.9772029  72.7564509  33.5397252  51.3628710
  72.8511364  34.2786546  51.8168336  72.1323353  33.1114728  51.7963275
  72.6773539  33.5858573  51.4936858  71.0116983  36.7183465  62.0118991
  71.5855845  36.0810709  62.1667555  70.9331787  36.7187547  61.1428649
  71.0850218  36.6248576  61.9065402  59.6113400  33.4972674  55.8501706
  60.1886902  33.3609125  56.4893951  58.9127461  33.0408458  56.1047290
  59.5934421  33.4094941  55.9823995  73.0087531  35.3845992  44.5965662
  72.9267693  35.4548179  45.4620649  73.6467251  35.9475736  44.4049403
  73.0907368  35.4784963  44.6955612  66.3680702  35.1506730  54.0640189
  66.1099946  34.3178465  54.0371488  66.4229185  35.3764343  53.2232689
  66.3380480  35.0604501  53.9360326  71.4481752  27.2535181  54.1644281
  70.7438079  26.7644366  54.3228201  71.4966726  27.2657655  53.2932726
  71.3511804  27.1824829  54.0583621  65.3415414  32.7044492  54.5505084
  64.7665005  32.8636661  55.1869044  64.9651090  32.0679902  54.0873534
  65.2018226  32.6342305  54.5759642  69.0088703  31.1767842  59.4097462
  68.6203135  30.7522060  58.7549653  68.3443401  31.4249991  59.9174489
  68.8535630  31.1506563  59.3885330  78.6511972  30.9342846  52.1845292
  78.3948537  30.1222788  51.9943175  79.4941286  30.9420414  51.9575479
  78.7377997  30.8154844  52.1230109  55.0872233  32.3484567  52.5649524
  55.1732485  31.9716436  53.3463054  55.7148030  31.9745013  52.0869482
  55.1928784  32.2370049  52.6095001  72.8315064  24.8742471  56.9221446
  73.2125576  24.1920642  57.3089320  72.0278348  24.5852073  56.7397111
  72.7691526  24.7309519  56.9525502  70.1127641  35.4066446  47.6074269
  70.9268280  35.6981339  47.4957040  70.0486782  34.7526309  47.0332562
  70.2230380  35.3531641  47.5063106  76.3337131  38.0892442  62.0203845
  76.0975768  37.2580507  61.9015905  76.9780360  38.0378050  62.6058689
  76.3931802  37.9590130  62.0889738  65.9835549  38.8787964  52.7346581
  66.6209496  38.6399711  53.2798374  66.4090621  39.0825123  51.9999742
  66.1411715  38.8738974  52.7063738  60.6748191  41.1176300  56.6180885
  60.7152337  41.3891151  55.7900664  61.2342716  41.6418208  57.0338673
  60.7631537  41.2352055  56.5572773  66.6238364  34.0990254  47.0721470
  67.0083517  33.8797960  47.8238016  66.3749984  34.9253199  47.2022547
  66.6440437  34.1888400  47.2022547  66.7906905  27.3796669  66.7884055
  66.4760346  28.1496232  66.5253617  66.4696837  26.8166925  66.2036282
  66.6965824  27.4106937  66.6625405  77.3573552  37.8736891  58.0832139
  77.0519369  38.6064948  58.4445455  76.6379767  37.4674821  57.8024925
  77.2060894  37.9218624  58.0945276  68.3657021  39.3560386  54.4140367
  68.4396029  39.1935558  55.2682217  69.1826527  39.5450576  54.1700849
  68.4973380  39.3597129  54.5038393  64.3438801  25.7687190  52.4030251
  63.4761227  25.8409790  52.4687860  64.6314006  26.5709269  52.5918226
  64.2578550  25.8981337  52.4405018  73.4671690  25.9165050  60.7341573
  74.2125282  25.7274860  60.3204998  73.0508995  26.4423288  60.1755429
  73.5156664  25.9667195  60.5906146  66.9061607  42.3195129  49.1453841
  67.1959905  41.9284111  48.4213067  67.6365088  42.5011834  49.5859116
  67.0568491  42.2888943  49.1036648  80.8433961  33.2874278  55.6847078
  81.3941883  32.6542347  55.9244170  80.8278076  33.8189671  56.3762582
  80.9219157  33.2723226  55.8225936  67.4956352  37.1212875  60.2306971
  66.9968046  37.8328643  60.3091860  68.3056576  37.4413542  60.1925134
  67.5412459  37.2739724  60.2363540  63.7584470  36.3835828  54.4769692
  63.4697718  35.7573300  55.0115419  64.6267818  36.3256116  54.5434373
  63.8444721  36.2823373  54.5660647  74.5462367  31.5270612  54.7951674
  74.2027133  30.8060947  55.1458924  74.6455410  31.3184463  53.9530032
  74.5104410  31.3894815  54.7223354  67.0135478  45.6691902  50.9944683
  67.6659536  45.1368344  51.2235709  66.3161087  45.3160554  51.3812557
  67.0066196  45.5381425  51.0856851  63.9616743  38.0231079  50.4012057
  64.7162711  38.4044119  50.6147520  63.3687356  38.4742223  50.8558754
  63.9853457  38.1459907  50.4994936  75.0075396  37.9896316  50.3375662
  75.5733429  38.6489526  50.2534205  74.3603300  38.3346014  50.8092064
  74.9954153  38.1378257  50.3948419  66.4223410  29.9793920  65.5269269
  65.6123186  30.2851700  65.4159112  66.8998097  30.6999502  65.6421853
  66.3726889  30.1308521  65.5276340  65.2814970  39.1939641  55.7752173
  64.7595723  39.3339932  56.4604037  65.6688990  38.4350305  55.9654290
  65.2618670  39.1025165  55.9053249  62.2706154  29.2445450  49.8447127
  61.9830949  28.8746720  49.1079075  62.9576622  29.7140305  49.5830832
  62.3295051  29.2592419  49.6962203  71.4781975  40.9335100  49.7612741
  71.2368650  40.2002961  49.3539806  71.6583307  41.4821957  49.1079075
  71.4689598  40.9057491  49.6042964  66.7081295  36.2243660  51.1733664
  66.5124078  36.8318394  50.5793967  66.9315641  35.5311604  50.6925337
  66.7115936  36.2121185  51.0149744  65.1059825  33.1098398  51.2914532
  65.8282477  33.2739556  50.8318338  64.6267818  33.8308063  51.1853872
  65.1423556  33.2396627  51.2080146  73.0653333  29.4462197  56.6711217
  72.2264433  29.4723475  56.4349480  73.1357700  30.0932932  57.2516563
  72.9521726  29.5458322  56.7220334  62.7567442  35.5156470  60.3968672
  63.2688539  35.7940723  59.7477432  62.4703784  36.2545764  60.7631485
  62.7902305  35.6658824  60.3558550  71.5122611  26.3447574  51.4038833
  72.2148964  26.1455322  50.9258791  71.2466800  25.5723516  51.7107676
  71.5769243  26.2010540  51.3784274  76.9410857  34.6530183  53.9572459
  76.8544831  34.8085609  54.8107237  76.4861336  35.2968259  53.5831864
  76.8614113  34.7705938  54.0279565  59.8434348  30.0226662  50.6932408
  59.9450485  30.8252823  51.0213384  60.6390235  29.8213998  50.3955489
  59.9762254  30.1112561  50.6967764  66.2751167  27.6082859  60.4569713
  66.0834364  27.6237993  61.3069137  67.1249763  27.8046533  60.4336368
  66.3726889  27.6397210  60.5793008  60.6598080  30.1373840  58.4353530
  60.5183572  29.2857781  58.5598038  60.9438644  30.1802501  57.6115736
  60.6805926  30.0173590  58.3321154  70.8136673  31.9740930  52.5798018
  70.5671387  31.8936681  53.4134807  71.1421796  31.1894398  52.3860546
  70.8257916  31.8467196  52.6745541  74.7084721  38.6824290  56.3684799
  74.5699081  39.3805336  56.8733542  73.9284719  38.5272946  56.0120981
  74.5727948  38.7624456  56.3911074  73.0462807  34.9820665  62.6207181
  73.0410845  34.1100482  62.6249607  73.7523800  35.1808834  62.1476637
  73.1507811  34.8824539  62.5514216  66.7733700  34.7097649  61.9921001
  66.9177076  35.2898857  61.3564111  67.1209348  35.0873946  62.6970856
  66.8461161  34.8518353  62.0019996  68.9453617  33.9087817  59.7746133
  68.1976931  34.1018832  59.3694411  69.0995142  33.0833037  59.5370254
  68.8576045  33.8152929  59.6791539  65.8461455  42.9000421  58.8582028
  65.9951019  42.3403337  58.2055432  66.6261457  42.9792423  59.2414547
  65.9835549  42.8285986  58.8178977  76.2038094  38.0402544  47.1301299
  75.8244903  37.2539681  47.1230588  75.5404340  38.5889401  46.9872943
  76.0496569  38.0047368  47.1082095  68.3714756  43.0715064  60.1366519
  68.2958427  42.4023874  60.6917307  68.3004615  43.7732852  60.6507185
  68.3495362  43.0759971  60.2943367  69.1855394  27.8038368  60.6641537
  69.6428008  28.5362342  60.7914329  69.2611723  27.3804833  61.4228792
  69.2646364  27.8495606  60.7942613  61.4288386  28.0504188  61.7530980
  60.8930575  27.4384546  62.0691747  61.4906150  28.6252324  62.4064647
  61.3584018  28.0451116  61.8966407  73.6582720  20.9828243  54.5335379
  73.7766288  21.4404707  53.8002682  73.4844896  20.1773505  54.2471597
  73.6501891  20.9322015  54.3836313  69.0285002  41.5916063  50.9690125
  69.7934894  41.3225706  50.6472789  68.9263092  41.1066073  51.6860188
  69.1266498  41.4805627  51.0269952  67.0637772  29.7940472  57.5083361
  66.2733847  29.6131932  57.8300696  67.4598395  29.0167425  57.4913655
  67.0054648  29.6527933  57.5535909  71.5503663  38.6228246  42.9490074
  72.3176648  38.6828371  42.5395926  71.1034972  38.0508688  42.4646393
  71.5977090  38.5464822  42.8167784  72.4481459  37.4282902  55.2342806
  71.7726460  37.1968134  55.7356193  72.4573835  36.8204085  54.6084911
  72.3499963  37.3041827  55.2158959  69.5775602  32.2700731  61.9906859
  69.5134744  33.1310688  61.8626996  69.7172790  31.9532724  61.1902411
  69.5891073  32.3500898  61.8535072  74.4498193  40.2848035  47.4652984
  74.5318030  41.0915021  47.1414435  74.9347935  40.3043994  48.1893758
  74.5335351  40.4068697  47.5239883  68.2594696  34.9632870  56.1323062
  67.8356945  35.1637370  55.3962081  68.0839552  34.1161718  56.2447362
  68.1705577  34.8681652  56.0396752  67.7606390  46.4783383  58.5944520
  68.2502320  45.7794173  58.4120184  67.1890622  46.1807253  59.1820577
  67.7490920  46.3309607  58.6545560  63.5477141  35.4584922  51.5651035
  63.7041761  35.3931725  52.4207027  63.8877734  36.2333474  51.3529714
  63.6210376  35.5634120  51.6605629  70.0856286  34.8342806  50.4344398
  70.6271831  34.3313187  50.8983019  70.4002845  34.7808000  49.6233883
  70.2120683  34.7522226  50.3828210  73.9573393  39.0445453  67.5471310
  74.7708259  38.7730602  67.7076443  73.7968360  38.7452993  66.7431506
  74.0543342  38.9600379  67.4516716  68.2542736  40.2260157  47.7184426
  68.3235556  39.3674696  47.8577427  69.0331191  40.4432038  47.3903451
  68.3795586  40.1313021  47.6901583  71.2345555  29.7279110  60.4866699
  71.4487525  29.0890024  59.9330053  70.6179455  30.1724934  60.0574560
  71.1750885  29.6989254  60.3417130  72.6450223  42.6497858  51.9320919
  72.2530015  42.3464573  51.2143786  72.8003295  43.4866948  51.7425873
  72.6103813  42.7281695  51.7977417  60.1211403  32.6419872  51.8811802
  60.5010368  33.0604417  51.2172069  59.5466768  33.2233328  52.1880645
  60.0922728  32.7897731  51.8288543  73.3984643  31.3368175  61.4250006
  72.5861325  31.0294066  61.5063178  73.8574578  30.8567175  61.9892718
  73.3465028  31.2204668  61.5204600  72.8089898  39.2147847  51.8726950
  72.4504553  39.3862490  52.6490982  72.3228609  39.6761053  51.3154948
  72.6848595  39.3086818  51.9052219  70.6260284  22.8379046  55.4754041
  69.7553842  22.8117767  55.4287351  70.8800625  22.6656238  54.6579887
  70.5353844  22.8089189  55.3474178  67.5978263  34.8947013  44.4127184
  67.8870788  35.6711895  44.6870759  67.6850062  34.3835744  45.1141684
  67.6532520  34.9338931  44.5569682  70.4938151  32.7428247  66.2078708
  70.9637782  33.3670363  66.5946582  70.5400031  32.0745222  66.7671923
  70.5706027  32.7362927  66.3478779  67.6509424  24.8485274  56.9327512
  67.1347913  24.1565466  57.0579091  67.0903353  25.5156051  56.8790110
  67.4915938  24.8448532  56.9433578  69.7201658  25.3878234  58.7620364
  69.3333411  25.4127266  59.5433894  69.2334595  24.8219913  58.3094881
  69.5914167  25.3073985  58.8108268  73.9694637  40.1051743  62.8194151
  74.6074358  39.6111939  62.4856607  73.3268729  40.0329144  62.2346378
  73.9688864  40.0210752  62.6836506  75.6951637  31.9540889  57.3860066
  75.2679246  31.8667238  56.6308166  75.0577690  32.0618665  57.9714911
  75.5381245  31.9573549  57.3605508  69.3858800  22.2745220  61.0530624
  70.0151918  22.8105520  60.7751695  69.5544662  22.1822579  61.9044190
  69.5036594  22.3406582  61.1379152  69.1872715  27.0616414  63.3257036
  70.0146144  26.7901563  63.3815650  69.2080561  27.8577256  63.6820854
  69.3125565  27.1396169  63.3872219  74.0248894  40.7971551  59.4599508
  74.8141272  40.4460616  59.5801589  74.1992492  41.6107940  59.1976141
  74.1669176  40.8657409  59.4387376  63.7642204  34.2080277  56.5127296
  62.9230211  34.1084151  56.7206190  63.9732212  34.9775757  56.8641617
  63.6706897  34.3072321  56.5954611  61.2417771  31.8299814  54.3412047
  60.8474469  31.9042826  53.5662157  60.6857888  32.2157760  54.8920409
  61.1020584  31.8981589  54.3079707  72.8782718  24.8081108  54.0215926
  73.0832312  24.7403416  54.8672923  72.5509142  25.6139929  53.9537103
  72.8597966  24.9167049  54.1375581  67.5758869  32.1361676  55.7624894
  67.2722007  31.5817665  56.3635302  66.8738290  32.3153886  55.2752928
  67.4275079  32.0806459  55.7794600  66.6324966  29.4462196  50.3269596
  66.9084701  28.7281109  49.9147163  67.2323636  30.0447116  50.1190702
  66.7618231  29.4282567  50.2350357  65.6377220  39.3511397  60.4696992
  65.5297575  39.3613459  61.3359050  65.8473002  40.1766177  60.2801946
  65.6527331  39.4752472  60.5701083  76.1316406  25.3612872  53.5018691
  75.5190719  25.8483275  53.8872423  76.2280581  24.6856363  54.0456343
  76.0554303  25.3331181  53.6397550  70.1335487  27.1175714  48.6016191
  70.5879233  27.2886274  49.3264035  70.6075533  26.5043824  48.2013967
  70.2703807  27.0526599  48.6489952  63.6551012  36.6024039  57.9318929
  63.0638946  37.2433538  57.9021944  64.4172036  37.0261657  57.9050229
  63.6799273  36.7599878  57.9234077  64.0511635  27.7626037  58.5986947
  64.5113117  27.8364967  59.3362071  64.0967742  28.5607291  58.2486768
  64.1262190  27.8920184  58.6559703  65.6994985  28.4292732  63.1658974
  65.3080550  27.7826079  63.6014752  65.8680848  29.0204167  63.7853229
  65.6665895  28.4207000  63.3221680  79.7741434  36.4329809  58.9296208
  79.8324558  36.8816458  59.6756184  79.1407901  36.8428622  58.4926288
  79.6892729  36.5603544  58.9748756  73.4140529  42.0533351  55.3650954
  73.2160217  42.5424166  54.6707165  72.7928240  42.2574593  55.9435087
  73.2928093  42.1549889  55.3474177  67.4748507  33.8218248  49.7061198
  68.2190552  34.2092524  49.9444148  67.6209203  32.9775673  49.8701686
  67.6059092  33.7548721  49.7655168  69.3928082  25.6168507  54.7393059
  68.5464127  25.7891315  54.6134409  69.3899215  24.8117851  55.0758888
  69.2675232  25.5229536  54.7704186  70.4626383  29.3943721  55.6055117
  69.9886337  28.8685483  56.1160428  70.8344519  28.8473194  55.0369979
  70.4476272  29.2359718  55.5970265  60.8399413  31.3915228  60.9738663
  61.7025026  31.2910937  60.8875993  60.5091196  30.8109937  60.4124235
  60.9184609  31.2906855  60.8784069  76.7263113  34.4546097  57.0161898
  76.4861336  33.6152512  57.0204324  77.2055120  34.5346264  57.7402671
  76.7615297  34.3427497  57.1236700  72.3909882  30.2880276  48.6680871
  71.8632901  30.3709020  47.9786580  72.8505591  31.0298147  48.6645516
  72.3811733  30.4100938  48.5655566  78.7268300  31.2347554  54.9691157
  78.4878070  31.1943388  54.1311942  78.8902202  32.0818706  55.0956878
  78.7158604  31.3539639  54.8644639  75.3314330  35.6197503  60.8996202
  76.0548529  35.1670030  60.7207222  75.0664293  35.9002169  60.1168530
  75.3995604  35.5948472  60.7574918  64.2001199  30.2157677  57.6349081
  63.5754269  30.2276069  57.0275034  63.8646794  30.6917852  58.2840322
  64.0586691  30.2876194  57.6405650  64.3842948  28.5582795  43.6921766
  64.0355752  29.2102521  44.1553316  63.9039393  28.5439908  42.9645638
  64.2613191  28.6525849  43.6532858  60.9126874  38.2758137  59.0752846
  60.3826799  37.5850576  59.1247820  61.1851968  38.2668322  58.2465554
  60.8751597  38.1725269  58.9600262  71.9446965  38.8583839  47.7990528
  72.6681164  39.3241952  47.6555102  71.5047556  38.9257449  47.0488125
  71.9862657  38.9367676  47.6675310  71.1133120  35.7181382  59.0491217
  70.4990113  35.1739432  59.3439853  71.6300405  35.2045618  58.5697033
  71.0988782  35.5617791  59.0215446  70.3529417  36.7885652  56.7835516
  69.9257025  36.1635370  56.3500951  70.3454361  36.5060573  57.6094523
  70.2888558  36.6538432  56.8415343  63.4691944  31.8250825  59.8523950
  63.6285431  31.0694149  60.2575672  63.2884838  32.3741764  60.5064688
  63.4657303  31.7944638  60.0086656  71.4112247  23.9912060  60.4074739
  70.9152808  24.1875734  59.7166306  72.1681309  24.3904729  60.2363541
  71.4499072  24.0789794  60.2794876  68.6815127  27.6654406  56.9978050
  68.7057614  27.1314518  56.3090830  68.9326600  27.1571715  57.6603640
  68.7225045  27.5115310  56.9942695  56.1922717  34.9485901  56.4321194
  56.0866166  34.9032745  55.5673278  55.4422937  35.2939682  56.7135479
  56.0658320  34.9926809  56.3458524  64.9616449  26.3925224  56.3783794
  65.0014821  26.8934431  57.0918502  64.1366114  26.4835618  56.1089717
  64.8455975  26.4807041  56.4434332  67.1446062  35.9585964  64.4804089
  66.2941692  36.0957679  64.6161734  67.3074190  35.2249743  64.9251790
  67.0429925  35.8700066  64.5659688  66.3830812  32.9085734  58.6757693
  65.5522742  33.0759552  58.4692941  66.3282330  32.5321685  59.4606579
  66.2520227  32.8775466  58.7606221  64.1914596  26.3994627  64.3114104
  64.8167299  25.8556760  64.5843536  63.7365076  25.9189545  63.7421894
  64.2162856  26.2484108  64.2675698  64.7566856  31.1841326  49.2047811
  64.8969817  31.6813790  49.9076452  65.2549389  30.4827620  49.3462025
  64.8507937  31.1543305  49.3299390  64.7867079  32.0508437  46.5340388
  65.4212158  32.6468862  46.4689850  64.8692689  31.7511894  47.3486258
  64.8923630  32.0949345  46.6443474  77.7649644  34.5823914  59.4026752
  78.3567485  35.2221165  59.4344950  78.2008639  33.8846951  59.6918819
  77.9168076  34.5742265  59.4507585  66.3646061  27.9822412  46.5085830
  66.6861903  27.5025495  45.8545092  66.6273005  28.7922058  46.3176641
  66.4512087  28.0312310  46.3841322  69.5943034  39.0041287  60.0284646
  69.0868125  39.5577133  60.4725276  69.2969680  39.0649576  59.2103420
  69.4747919  39.0947598  59.9733103  71.7605216  27.3694606  58.8709309
  72.1860288  26.9167133  58.2592835  71.1462210  26.8154677  59.1474096
  71.7333862  27.2208582  58.8214334  61.2920067  34.2476278  49.8029934
  61.8012296  34.8440785  50.1841239  61.7654339  33.9802251  49.1206353
  61.4363442  34.2962093  49.7584456  72.2050815  42.9204544  47.9588589
  71.4880124  42.7465406  47.4935827  72.8557552  42.6857117  47.4264075
  72.1952665  42.8600337  47.8117807  70.1999439  23.8409706  52.2799886
  69.5567757  23.6907352  52.8485024  69.8598846  23.5952051  51.5148990
  70.0544517  23.7821828  52.2502901  74.7898786  31.7969133  51.7029894
  74.1189976  32.3398835  51.5742960  75.4838536  32.2663988  51.4611589
  74.7927653  31.9467404  51.6485422  68.8385520  43.9365845  56.9341653
  68.6151174  43.1784674  57.3025679  68.3495363  43.9663866  56.2122092
  68.7328969  43.8288069  56.8818394  74.9526913  28.2525016  54.6120268
  75.3054523  27.8254739  55.2866066  74.0941715  28.1675860  54.7421344
  74.8776358  28.1769757  54.7315278  63.6510598  30.8832536  52.6703114
  62.9322587  31.2996669  52.9375978  64.0222961  31.4486775  52.1194752
  63.6002530  31.0281818  52.6285921  72.9510179  31.5160385  58.5605110
  72.9308106  31.3343680  59.4139889  72.9989380  32.3872404  58.5364694
  72.9544820  31.6176923  58.6828405  70.8956509  38.1047577  64.4853586
  70.8552364  37.4597254  63.8998742  71.7079827  38.0484194  64.7978998
  71.0099662  38.0006544  64.4450536  67.4863976  44.1566303  54.3878737
  67.0724375  43.4940433  53.9982579  68.1711351  44.3044162  53.8674432
  67.5262348  44.0806961  54.2535234  70.8529271  43.3156388  55.1402354
  70.4545554  43.4258659  54.3723174  70.2380490  43.5238454  55.7228914
  70.7028160  43.3629956  55.1133653  69.4257173  29.9230536  48.0076494
  68.8322012  30.2447533  47.4561061  69.4632450  29.0771631  47.7997600
  69.3431562  29.8454864  47.8959265  76.3850973  23.3743428  55.5404580
  75.8781838  22.6672568  55.4725758  77.1818407  23.0436617  55.6705657
  76.4278213  23.2216580  55.5503575  72.3014989  29.8810041  51.4378244
  72.0728682  29.9042742  50.5956602  72.5613065  29.0567508  51.5573254
  72.3061177  29.7626120  51.3303442  66.5834218  31.7344514  61.0403344
  66.0713121  31.1265697  61.3988375  66.4113714  32.4501106  61.5077320
  66.4823855  31.7507813  61.1619568  61.4299932  30.1782089  63.6905706
  61.2602523  30.8383464  63.1453913  60.9865882  30.3888650  64.4118195
  61.3399266  30.3068071  63.7167335  65.3559752  28.4186587  52.7332440
  65.8317118  28.7803667  52.0982621  64.8548351  29.0743054  53.0132582
  65.3525111  28.5680776  52.6809181  78.5871113  37.8908355  48.5245445
  78.9704719  38.6399711  48.7543542  77.7915227  38.1374175  48.2657434
  78.5264895  38.0378049  48.5203018  70.4603288  29.6568758  63.4805600
  71.0174718  29.4282568  62.8484065  70.1364353  30.4174424  63.2040812
  70.4949698  29.7352595  63.3462097  58.3301997  33.0828954  58.9494196
  57.7828716  32.4129600  59.0675064  59.1194375  32.7158802  59.0137663
  58.3654180  32.9293941  58.9762896  68.1786405  32.7436412  64.4457607
  68.9297732  33.0588088  64.7597161  68.3708982  32.5415582  63.6191529
  68.3177819  32.7603793  64.3701002  67.3986405  30.5627787  46.1005824
  67.7785370  30.5807416  45.3156938  66.6579001  31.0081775  45.9796671
  67.3455243  30.6309561  45.9669392  75.0271695  28.8709978  51.6881402
  75.0265922  28.7158634  52.5465679  74.8227875  29.7172965  51.6322788
  74.9971473  28.9730599  51.8069342  57.0888966  32.2949762  56.1040219
  56.9110727  31.8426371  56.8295134  56.8007988  33.0975924  56.2878696
  57.0201919  32.3472320  56.2383722  72.7512547  33.5507480  55.3417609
  73.2466213  32.8330475  55.3021629  71.9412323  33.2478277  55.2272096
  72.7056441  33.4005126  55.3191335  68.1971159  37.4005293  47.4914614
  67.3882482  37.0771966  47.4447923  68.7046068  36.6938515  47.4242862
  68.1520826  37.2486609  47.4744908  58.8261436  34.8277486  53.2161978
  57.9606956  34.8163176  53.1044749  58.9260252  34.6407709  54.0633117
  58.7135603  34.7983547  53.3250922  74.8164366  36.3011167  58.0294738
  75.2419438  35.7785589  57.4765163  74.4521286  36.8992005  57.5083361
  74.8250969  36.3121394  57.8703748  64.4518446  44.5975385  56.7892083
  64.7665005  45.4111773  56.7969865  64.8611859  44.2125603  57.4574242
  64.5586544  44.6604087  56.8896175  71.4042966  40.0145431  54.3595895
  71.8754144  40.7285694  54.5285880  71.7403144  39.4144182  54.8955765
  71.5238081  40.0316896  54.4628271  73.4919950  41.6246745  66.5387967
  73.6016916  40.8355305  66.8944715  73.8210847  41.5352681  65.7362305
  73.5572356  41.4952598  66.4730358  68.3212461  24.7872902  61.3153990
  68.4540366  23.9903895  61.6434966  68.7057613  25.3139305  61.8952266
  68.3968790  24.7472819  61.4497493  72.0416912  39.8063366  61.1223588
  71.4937858  39.1821249  60.8543653  72.5029941  39.9957638  60.4067667
  72.0284122  39.7422416  60.9774019  71.3944816  21.7103228  57.9135083
  70.5890780  21.6000958  58.2302922  71.2651551  21.8115684  57.0564949
  71.2564949  21.7086898  57.8343124  74.8510776  27.8748720  58.5074780
  74.2673765  28.3757926  58.0952348  75.1715070  27.3678276  57.8739104
  74.8123952  27.8740555  58.3533287  67.3905576  26.7889315  48.7833455
  68.2121270  26.9587628  48.5415150  66.9275226  26.9436576  48.0599753
  67.4436738  26.8371048  48.6405099  65.9800907  24.7832077  59.5631884
  66.5245320  24.4423204  60.1536226  66.0337843  25.6417539  59.7053168
  66.0690027  24.8587336  59.6713757  61.7931466  38.5448493  56.4370692
  62.3976324  38.5044327  55.8084512  61.5858779  39.3919645  56.4674748
  61.8520364  38.6636496  56.3486808  71.6075238  40.8114438  57.6532929
  72.4273612  40.6677404  57.9149224  71.3269316  41.4360637  58.1949367
  71.6871982  40.8824790  57.7720869  57.0282749  37.5283111  56.3069615
  56.9307027  36.7179382  56.6159672  57.8111618  37.5074904  55.9215883
  57.1298885  37.4050201  56.2956478  81.2788574  47.5554941  55.3728736
  80.4226469  47.7163439  55.4237853  81.3256227  46.6847005  55.3933797
  81.1587685  47.4505743  55.3834802  75.6629713  57.0917659  51.1365967
  74.9112613  56.7133197  50.9082013  76.1115725  57.1236092  50.3884778
  75.6179380  57.0403266  50.9923470  81.1154673  57.5143028  46.5651515
  80.7806042  58.1919950  46.1295737  81.6281544  57.1248340  45.9768386
  81.1420254  57.5567607  46.4138306  80.6558964  59.4657297  52.5062626
  81.0398344  60.0344196  51.9667401  80.5918106  58.7406807  52.0268442
  80.7032392  59.4432760  52.3556489  77.2414469  57.1036051  53.4028740
  77.3424832  56.2936405  53.7125868  76.6456215  57.0092997  52.7728418
  77.1687008  56.9701079  53.3554978  77.0815209  62.0213640  54.8043596
  77.7252665  62.4626804  55.1939754  77.4071465  61.2167066  54.7173855
  77.2247038  61.9678835  54.8489073  70.4379514  53.1256338  53.0281074
  70.2029698  52.2923990  52.9213342  70.5765154  53.4061003  52.2142275
  70.4235176  53.0439841  52.8923429  72.7369601  45.2942068  55.9265381
  72.1174633  44.7034715  55.7575396  72.6353465  45.8853503  55.2929705
  72.6307277  45.2946151  55.8070371  77.7835789  55.0325615  50.1763458
  78.1051630  55.5730822  49.5724766  78.4307885  54.4622386  50.3085747
  77.9261844  55.0284790  50.1070493  79.8337497  47.0341610  50.2597844
  80.5317662  47.2129737  50.7519308  80.1489829  46.5111949  49.6368234
  79.9832834  46.9835382  50.2399855  72.4638734  48.8394350  58.1708950
  72.3397431  49.4256795  58.8058769  73.1157019  48.3454546  58.4721225
  72.5412384  48.8533154  58.3094880  80.0225432  53.4212055  50.2477636
  80.4619068  52.8129155  50.6932409  79.8730095  53.0419428  49.4763101
  80.0646898  53.2750526  50.1996803  77.4897075  52.0156067  57.4496461
  78.1346078  51.5228510  57.1307410  77.7298852  52.1580853  58.2762540
  77.6207660  51.9633509  57.5245995  80.0283167  54.8610973  57.1003354
  80.3106409  54.0662378  56.8790110  80.7569327  55.3391560  57.1208415
  80.1772730  54.8145570  57.0706369  78.0064360  42.4034007  54.3419119
  77.6767690  42.8545150  53.6722818  77.3309362  42.3250170  54.8892125
  77.8574797  42.4585142  54.3242342  76.4452810  52.2887247  47.5013608
  75.8610025  52.7937279  47.9079472  76.0422905  52.0629634  46.7610200
  76.2992114  52.3295495  47.4518633  71.9996838  58.0042008  54.3037280
  71.5164417  58.7292498  54.2796863  72.8120157  58.3018138  54.4147437
  72.0487586  58.1544362  54.3164559  78.0710992  56.7974189  56.9087094
  77.5537934  56.4381604  56.3048402  78.7685384  56.2736363  56.9193160
  78.0976574  56.6671877  56.8217353  81.7274584  57.2469003  62.8703267
  81.8157930  57.0595143  63.7181478  82.1564297  56.6006433  62.4708114
  81.8036687  57.1232011  62.9375019  79.2945044  56.5300163  61.8520929
  78.7315879  56.1172773  62.3760591  80.0566068  56.4553069  62.2714073
  79.3239493  56.4577564  61.9913930  80.9030024  48.5352899  45.9782529
  81.1426028  48.7430883  45.1657872  81.2245865  47.7310408  46.0871473
  80.9867182  48.4467000  45.8743082  76.2120314  40.4646295  49.8242067
  76.9666283  40.8324612  49.5859117  76.0347849  40.8385849  50.5921246
  76.2974793  40.5744483  49.9026955  74.8541036  58.5198184  54.4557560
  75.5561615  58.0050173  54.5130316  74.7738519  58.8472336  55.2604435
  74.9464796  58.4912410  54.5830352  75.9019942  48.7573771  63.5837975
  76.0740446  48.6479666  64.4323256  76.4389300  49.4028177  63.3469167
  76.0064946  48.8365773  63.6743071  74.5677379  42.8716614  46.5220180
  74.3852952  43.0888495  45.6961173  75.4302992  42.9855627  46.5778794
  74.6681969  42.9206512  46.4074667  74.1791811  54.7104536  53.9643168
  75.0180711  54.9427469  54.0116929  74.2103580  53.8408848  53.8950203
  74.3073529  54.6161483  53.9607812  74.8044514  55.1305411  58.2656473
  75.3442739  54.9876542  58.9359846  74.1214460  55.5302162  58.6340499
  74.7836668  55.1685082  58.4190895  80.2477098  39.8743025  49.5569204
  80.9763259  39.6958980  49.1107360  80.3371991  40.7161104  49.7676382
  80.3683760  39.9726903  49.5222721  81.8394644  56.6778022  65.5347051
  82.6235060  56.7908870  65.9002793  81.6391238  55.8519159  65.7305737
  81.9260669  56.5724742  65.6181437  70.2081659  51.3505702  58.4190895
  69.9420074  50.5344819  58.5781885  70.2220223  51.3958858  57.5486410
  70.1706382  51.2362607  58.3144377  74.1139406  46.1490787  45.0342653
  73.3997583  45.8628966  45.4465085  74.5983375  46.4887412  45.6749040
  74.0798769  46.1572436  45.1898288  74.9580266  44.8884080  61.0657902
  74.2652062  44.4181060  61.3118634  75.5740593  44.6622385  61.6399610
  74.9464796  44.7851212  61.1867055  81.9965037  58.5888124  59.1813506
  81.1980283  58.3487624  59.4387375  82.4451049  58.6402517  59.9280554
  81.9439648  58.5610515  59.3298431  81.2886724  54.6520741  45.4104461
  81.7037873  54.3205764  44.7188957  80.4578654  54.4189643  45.2824598
  81.2274733  54.5691997  45.2895308  70.6175073  52.1364482  55.7002639
  70.4350646  52.1111368  54.8474931  71.3524742  52.6063419  55.7391548
  70.6989137  52.2025844  55.5800557  73.6820825  48.8549484  62.2084748
  74.4060797  48.8402515  62.6949642  73.7836961  49.5644840  61.7106716
  73.8039034  48.9574188  62.2063534  81.0565774  52.3348569  67.0733695
  80.2638755  52.6492081  67.2586314  81.1714701  52.5500037  66.2354479
  80.9561184  52.4132406  66.9772029  81.9849567  52.2368773  62.0118991
  82.5588428  51.5996017  62.1667555  81.9064370  52.2372855  61.1428649
  82.0582802  52.1433884  61.9065402  70.5845983  49.0157982  55.8501706
  71.1619486  48.8794433  56.4893951  69.8860045  48.5593766  56.1047290
  70.5667005  48.9280248  55.9823995  77.3413285  50.6692038  54.0640189
  77.0832530  49.8363773  54.0371488  77.3961768  50.8949651  53.2232689
  77.3113063  50.5789809  53.9360326  82.4214336  42.7720489  54.1644281
  81.7170662  42.2829674  54.3228201  82.4699310  42.7842963  53.2932726
  82.3244387  42.7010137  54.0583621  76.3147998  48.2229800  54.5505084
  75.7397589  48.3821969  55.1869044  75.9383674  47.5865210  54.0873534
  76.1750810  48.1527613  54.5759642  79.9821286  46.6953150  59.4097462
  79.5935719  46.2707367  58.7549653  79.3175985  46.9435299  59.9174489
  79.8268214  46.6691871  59.3885330  66.0604816  47.8669875  52.5649524
  66.1465068  47.4901744  53.3463054  66.6880614  47.4930321  52.0869482
  66.1661367  47.7555357  52.6095001  81.0860224  50.9251754  47.6074269
  81.9000863  51.2166647  47.4957040  81.0219366  50.2711617  47.0332562
  81.1962963  50.8716949  47.5063106  76.9568133  54.3973272  52.7346581
  77.5942080  54.1585019  53.2798374  77.3823204  54.6010431  51.9999742
  77.1144299  54.3924282  52.7063738  71.6480775  56.6361608  56.6180885
  71.6884920  56.9076459  55.7900664  72.2075299  57.1603516  57.0338673
  71.7364121  56.7537363  56.5572773  77.5970948  49.6175562  47.0721470
  77.9816100  49.3983268  47.8238016  77.3482568  50.4438507  47.2022547
  77.6173020  49.7073708  47.2022547  77.7639488  42.8981977  66.7884055
  77.4492929  43.6681539  66.5253617  77.4429421  42.3352233  66.2036282
  77.6698407  42.9292245  66.6625405  79.3389605  54.8745694  54.4140367
  79.4128613  54.7120866  55.2682217  80.1559111  55.0635884  54.1700849
  79.4705963  54.8782437  54.5038393  73.0995361  55.2203557  51.4434811
  72.2733479  55.4665294  51.3169090  73.1607353  55.1415638  52.3096869
  72.9869528  55.2448506  51.5523755  75.3171385  41.2872498  52.4030251
  74.4493811  41.3595098  52.4687860  75.6046589  42.0894577  52.5918226
  75.2311133  41.4166645  52.4405018  77.8794190  57.8380437  49.1453841
  78.1692489  57.4469419  48.4213067  78.6097671  58.0197142  49.5859116
  78.0301075  57.8074251  49.1036648  78.4688936  52.6398183  60.2306971
  77.9700629  53.3513951  60.3091860  79.2789160  52.9598850  60.1925134
  78.5145042  52.7925032  60.2363540  75.8200106  59.8147820  52.2113990
  75.6000401  59.5245175  53.0040657  75.5994628  59.1562775  51.6831903
  75.7547700  59.6747528  52.2502899  74.7317053  51.9021136  54.4769692
  74.4430302  51.2758608  55.0115419  75.6000401  51.8441424  54.5434373
  74.8177305  51.8008681  54.5660647  77.9868062  61.1877210  50.9944683
  78.6392120  60.6553652  51.2235709  77.2893670  60.8345862  51.3812557
  77.9798780  61.0566733  51.0856851  74.9349326  53.5416387  50.4012057
  75.6895294  53.9229426  50.6147520  74.3419939  53.9927531  50.8558754
  74.9586040  53.6645215  50.4994936  77.3955994  45.4979228  65.5269269
  76.5855769  45.8037007  65.4159112  77.8730680  46.2184810  65.6421853
  77.3459472  45.6493829  65.5276340  76.2547553  54.7124949  55.7752173
  75.7328307  54.8525240  56.4604037  76.6421573  53.9535613  55.9654290
  76.2351254  54.6210473  55.9053249  73.2438737  44.7630757  49.8447127
  72.9563533  44.3932028  49.1079075  73.9309205  45.2325613  49.5830832
  73.3027634  44.7777727  49.6962203  82.4514558  56.4520408  49.7612741
  82.2101234  55.7188269  49.3539806  82.6315891  57.0007265  49.1079075
  82.4422182  56.4242799  49.6042964  77.6813879  51.7428968  51.1733664
  77.4856661  52.3503702  50.5793967  77.9048224  51.0496912  50.6925337
  77.6848520  51.7306493  51.0149744  76.0792409  48.6283706  51.2914532
  76.8015061  48.7924864  50.8318338  75.6000402  49.3493371  51.1853872
  76.1156139  48.7581935  51.2080146  73.7300025  51.0341778  60.3968672
  74.2421122  51.3126031  59.7477432  73.4436368  51.7731072  60.7631485
  73.7634889  51.1844132  60.3558550  70.8166932  45.5411970  50.6932408
  70.9183068  46.3438131  51.0213384  71.6122818  45.3399306  50.3955489
  70.9494837  45.6297869  50.6967764  77.2483751  43.1268167  60.4569713
  77.0566948  43.1423301  61.3069137  78.0982347  43.3231841  60.4336368
  77.3459473  43.1582518  60.5793008  71.6330664  45.6559148  58.4353530
  71.4916156  44.8043089  58.5598038  71.9171227  45.6987809  57.6115736
  71.6538510  45.5358898  58.3321154  81.7869256  47.4926238  52.5798018
  81.5403970  47.4121989  53.4134807  82.1154379  46.7079706  52.3860546
  81.7990500  47.3652504  52.6745541  77.7466283  50.2282957  61.9921001
  77.8909659  50.8084165  61.3564111  78.0941932  50.6059254  62.6970856
  77.8193745  50.3703661  62.0019996  79.9186201  49.4273125  59.7746133
  79.1709515  49.6204140  59.3694411  80.0727726  48.6018345  59.5370254
  79.8308628  49.3338237  59.6791539  76.8194038  58.4185729  58.8582028
  76.9683602  57.8588645  58.2055432  77.5994041  58.4977730  59.2414547
  76.9568132  58.3471294  58.8178977  79.3447339  58.5900372  60.1366519
  79.2691010  57.9209182  60.6917307  79.2737198  59.2918160  60.6507185
  79.3227946  58.5945279  60.2943367  80.1587978  43.3223676  60.6641537
  80.6160592  44.0547650  60.7914329  80.2344307  42.8990141  61.4228792
  80.2378948  43.3680914  60.7942613  72.4020969  43.5689496  61.7530980
  71.8663159  42.9569854  62.0691747  72.4638734  44.1437632  62.4064647
  72.3316602  43.5636424  61.8966407  80.0017586  57.1101371  50.9690125
  80.7667477  56.8411014  50.6472789  79.8995676  56.6251381  51.6860188
  80.0999081  56.9990935  51.0269952  78.0370356  45.3125780  57.5083361
  77.2466431  45.1317240  57.8300696  78.4330979  44.5352733  57.4913655
  77.9787232  45.1713241  57.5535909  80.5508186  47.7886039  61.9906859
  80.4867327  48.6495996  61.8626996  80.6905374  47.4718032  61.1902411
  80.5623656  47.8686206  61.8535072  79.2327280  50.4818178  56.1323062
  78.8089529  50.6822677  55.3962081  79.0572135  49.6347026  56.2447362
  79.1438161  50.3866960  56.0396752  78.7338973  61.9968691  58.5944520
  79.2234904  61.2979481  58.4120184  78.1623206  61.6992561  59.1820577
  78.7223503  61.8494915  58.6545560  74.5209725  50.9770230  51.5651035
  74.6774344  50.9117033  52.4207027  74.8610318  51.7518782  51.3529714
  74.5942960  51.0819428  51.6605629  81.0588870  50.3528113  50.4344398
  81.6004415  49.8498495  50.8983019  81.3735429  50.2993308  49.6233883
  81.1853267  50.2707534  50.3828210  79.2275319  55.7445465  47.7184426
  79.2968140  54.8860003  47.8577427  80.0063774  55.9617346  47.3903451
  79.3528169  55.6498329  47.6901583  82.2078139  45.2464418  60.4866699
  82.4220108  44.6075332  59.9330053  81.5912038  45.6910242  60.0574560
  82.1483468  45.2174562  60.3417130  71.0943986  48.1605180  51.8811802
  71.4742951  48.5789725  51.2172069  70.5199351  48.7418636  52.1880645
  71.0655311  48.3083039  51.8288543  81.5992868  38.3564354  55.4754041
  80.7286426  38.3303075  55.4287351  81.8533209  38.1841546  54.6579887
  81.5086428  38.3274497  55.3474178  78.5710847  50.4132321  44.4127184
  78.8603372  51.1897203  44.6870759  78.6582646  49.9021052  45.1141684
  78.6265103  50.4524239  44.5569682  81.4670734  48.2613555  66.2078708
  81.9370366  48.8855671  66.5946582  81.5132615  47.5930530  66.7671923
  81.5438610  48.2548235  66.3478779  78.6242008  40.3670582  56.9327512
  78.1080497  39.6750774  57.0579091  78.0635937  41.0341359  56.8790110
  78.4648521  40.3633840  56.9433578  80.6934242  40.9063542  58.7620364
  80.3065995  40.9312574  59.5433894  80.2067179  40.3405221  58.3094881
  80.5646750  40.8259293  58.8108268  80.3591383  37.7930528  61.0530624
  80.9884501  38.3290828  60.7751695  80.5277246  37.7007887  61.9044190
  80.4769178  37.8591890  61.1379152  80.1605298  42.5801722  63.3257036
  80.9878727  42.3086871  63.3815650  80.1813144  43.3762564  63.6820854
  80.2858148  42.6581477  63.3872219  74.7374788  49.7265585  56.5127296
  73.8962795  49.6269459  56.7206190  74.9464796  50.4961065  56.8641617
  74.6439481  49.8257628  56.5954611  72.2150355  47.3485122  54.3412047
  71.8207053  47.4228134  53.5662157  71.6590472  47.7343068  54.8920409
  72.0753167  47.4166897  54.3079707  78.5491453  47.6546984  55.7624894
  78.2454590  47.1002973  56.3635302  77.8470874  47.8339194  55.2752928
  78.4007663  47.5991767  55.7794600  77.6057550  44.9647504  50.3269596
  77.8817284  44.2466417  49.9147163  78.2056219  45.5632424  50.1190702
  77.7350815  44.9467875  50.2350357  76.6109804  54.8696705  60.4696992
  76.5030159  54.8798767  61.3359050  76.8205585  55.6951485  60.2801946
  76.6259915  54.9937780  60.5701083  81.1068070  42.6361021  48.6016191
  81.5611817  42.8071582  49.3264035  81.5808116  42.0229132  48.2013967
  81.2436391  42.5711907  48.6489952  74.6283596  52.1209347  57.9318929
  74.0371529  52.7618846  57.9021944  75.3904619  52.5446965  57.9050229
  74.6531856  52.2785186  57.9234077  75.0244219  43.2811345  58.5986947
  75.4845700  43.3550275  59.3362071  75.0700325  44.0792599  58.2486768
  75.0994774  43.4105492  58.6559703  76.6727568  43.9478040  63.1658974
  76.2813134  43.3011387  63.6014752  76.8413431  44.5389475  63.7853229
  76.6398479  43.9392308  63.3221680  78.4481090  49.3403556  49.7061198
  79.1923135  49.7277832  49.9444148  78.5941787  48.4960981  49.8701686
  78.5791676  49.2734029  49.7655168  80.3660666  41.1353815  54.7393059
  79.5196711  41.3076622  54.6134409  80.3631798  40.3303158  55.0758888
  80.2407816  41.0414844  54.7704186  81.4358966  44.9129029  55.6055117
  80.9618921  44.3870791  56.1160428  81.8077102  44.3658502  55.0369979
  81.4208855  44.7545026  55.5970265  71.8131996  46.9100536  60.9738663
  72.6757609  46.8096245  60.8875993  71.4823779  46.3295245  60.4124235
  71.8917193  46.8092163  60.8784069  75.1733782  45.7342985  57.6349081
  74.5486853  45.7461377  57.0275034  74.8379377  46.2103160  58.2840322
  75.0319274  45.8061502  57.6405650  75.3575531  44.0768103  43.6921766
  75.0088335  44.7287829  44.1553316  74.8771977  44.0625216  42.9645638
  75.2345775  44.1711157  43.6532858  71.8859458  53.7943445  59.0752846
  71.3559382  53.1035884  59.1247820  72.1584551  53.7853630  58.2465554
  71.8484180  53.6910577  58.9600262  82.0865704  51.2366690  59.0491217
  81.4722697  50.6924740  59.3439853  82.6032988  50.7230926  58.5697033
  82.0721366  51.0803099  59.0215446  81.3262001  52.3070960  56.7835516
  80.8989609  51.6820678  56.3500951  81.3186945  52.0245881  57.6094523
  81.2621142  52.1723740  56.8415343  74.4424528  47.3436133  59.8523950
  74.6018014  46.5879457  60.2575672  74.2617421  47.8927072  60.5064688
  74.4389887  47.3129946  60.0086656  79.6547710  43.1839714  56.9978050
  79.6790198  42.6499826  56.3090830  79.9059184  42.6757023  57.6603640
  79.6957629  43.0300618  56.9942695  67.1655300  50.4671209  56.4321194
  67.0598749  50.4218053  55.5673278  66.4155520  50.8124990  56.7135479
  67.0390903  50.5112117  56.3458524  75.9349033  41.9110532  56.3783794
  75.9747404  42.4119739  57.0918502  75.1098697  42.0020926  56.1089717
  75.8188559  41.9992349  56.4434332  78.1178645  51.4771272  64.4804089
  77.2674276  51.6142987  64.6161734  78.2806773  50.7435051  64.9251790
  78.0162509  51.3885374  64.5659688  77.3563396  48.4271042  58.6757693
  76.5255326  48.5944860  58.4692941  77.3014913  48.0506993  59.4606579
  77.2252811  48.3960773  58.7606221  75.1647179  41.9179935  64.3114104
  75.7899883  41.3742068  64.5843536  74.7097659  41.4374853  63.7421894
  75.1895440  41.7669416  64.2675698  75.7299440  46.7026634  49.2047811
  75.8702401  47.1999098  49.9076452  76.2281973  46.0012928  49.3462025
  75.8240521  46.6728612  49.3299390  75.7599662  47.5693745  46.5340388
  76.3944742  48.1654170  46.4689850  75.8425273  47.2697202  47.3486258
  75.8656213  47.6134653  46.6443474  77.3378645  43.5007720  46.5085830
  77.6594486  43.0210803  45.8545092  77.6005589  44.3107366  46.3176641
  77.4244670  43.5497618  46.3841322  80.5675618  54.5226594  60.0284646
  80.0600709  55.0762441  60.4725276  80.2702264  54.5834884  59.2103420
  80.4480503  54.6132906  59.9733103  72.2652650  49.7661585  49.8029934
  72.7744879  50.3626093  50.1841239  72.7386922  49.4987559  49.1206353
  72.4096026  49.8147401  49.7584456  81.1732023  39.3595014  52.2799886
  80.5300341  39.2092660  52.8485024  80.8331430  39.1137359  51.5148990
  81.0277100  39.3007136  52.2502901  79.8118103  59.4551153  56.9341653
  79.5883758  58.6969982  57.3025679  79.3227946  59.4849174  56.2122092
  79.7061552  59.3473377  56.8818394  74.6243182  46.4017844  52.6703114
  73.9055171  46.8181977  52.9375978  74.9955544  46.9672083  52.1194752
  74.5735114  46.5467125  52.6285921  81.8689092  53.6232885  64.4853586
  81.8284947  52.9782562  63.8998742  82.6812411  53.5669502  64.7978998
  81.9832246  53.5191852  64.4450536  78.4596560  59.6751611  54.3878737
  78.0456959  59.0125741  53.9982579  79.1443934  59.8229470  53.8674432
  78.4994932  59.5992269  54.2535234  81.8261854  58.8341696  55.1402354
  81.4278137  58.9443966  54.3723174  81.2113074  59.0423762  55.7228914
  81.6760743  58.8815264  55.1133653  80.3989756  45.4415844  48.0076494
  79.8054595  45.7632840  47.4561061  80.4365034  44.5956939  47.7997600
  80.3164145  45.3640172  47.8959265  77.5566801  47.2529821  61.0403344
  77.0445704  46.6451004  61.3988375  77.3846297  47.9686414  61.5077320
  77.4556438  47.2693121  61.1619568  72.4032516  45.6967397  63.6905706
  72.2335106  46.3568772  63.1453913  71.9598466  45.9073958  64.4118195
  72.3131849  45.8253379  63.7167335  76.3292335  43.9371895  52.7332440
  76.8049702  44.2988975  52.0982621  75.8280935  44.5928362  53.0132582
  76.3257694  44.0866083  52.6809181  81.4335872  45.1754066  63.4805600
  81.9907302  44.9467876  62.8484065  81.1096937  45.9359732  63.2040812
  81.4682282  45.2537903  63.3462097  69.3034580  48.6014262  58.9494196
  68.7561300  47.9314908  59.0675064  70.0926959  48.2344110  59.0137663
  69.3386764  48.4479249  58.9762896  79.1518989  48.2621719  64.4457607
  79.9030316  48.5773396  64.7597161  79.3441565  48.0600890  63.6191529
  79.2910403  48.2789101  64.3701002  78.3718988  46.0813095  46.1005824
  78.7517953  46.0992724  45.3156938  77.6311584  46.5267083  45.9796671
  78.3187826  46.1494869  45.9669392  68.0621550  47.8135070  56.1040219
  67.8843311  47.3611679  56.8295134  67.7740572  48.6161232  56.2878696
  67.9934503  47.8657628  56.2383722  79.1703742  52.9190601  47.4914614
  78.3615065  52.5957274  47.4447923  79.6778651  52.2123823  47.4242862
  79.1253409  52.7671917  47.4744908  69.7994020  50.3462794  53.2161978
  68.9339539  50.3348484  53.1044749  69.8992836  50.1593017  54.0633117
  69.6868187  50.3168855  53.3250922  75.4251030  60.1160693  56.7892083
  75.7397589  60.9297081  56.7969865  75.8344443  59.7310911  57.4574242
  75.5319128  60.1789395  56.8896175  82.3775549  55.5330739  54.3595895
  82.8486727  56.2471002  54.5285880  82.7135728  54.9329489  54.8955765
  82.4970664  55.5502204  54.4628271  79.2945044  40.3058210  61.3153990
  79.4272950  39.5089203  61.6434966  79.6790197  40.8324613  61.8952266
  79.3701373  40.2658127  61.4497493  82.3677399  37.2288536  57.9135083
  81.5623363  37.1186266  58.2302922  82.2384135  37.3300992  57.0564949
  82.2297532  37.2272206  57.8343124  78.3638159  42.3074623  48.7833455
  79.1853853  42.4772936  48.5415150  77.9007810  42.4621884  48.0599753
  78.4169321  42.3556356  48.6405099  76.9533491  40.3017385  59.5631884
  77.4977904  39.9608512  60.1536226  77.0070427  41.1602847  59.7053168
  77.0422610  40.3772644  59.6713757  72.7664050  54.0633801  56.4370692
  73.3708907  54.0229635  55.8084512  72.5591362  54.9104953  56.4674748
  72.8252947  54.1821803  56.3486808  68.0015332  53.0468419  56.3069615
  67.9039610  52.2364690  56.6159672  68.7844202  53.0260212  55.9215883
  68.1031469  52.9235509  56.2956478  81.4112097  68.6441645  53.0281074
  81.1762282  67.8109298  52.9213342  81.5497738  68.9246311  52.2142275
  81.3967760  68.5625149  52.8923429  81.1814243  66.8691010  58.4190895
  80.9152658  66.0530127  58.5781885  81.1952807  66.9144166  57.5486410
  81.1438965  66.7547915  58.3144377  81.5907656  67.6549790  55.7002639
  81.4083230  67.6296676  54.8474931  82.3257325  68.1248727  55.7391548
  81.6721720  67.7211152  55.5800557  81.5578567  64.5343290  55.8501706
  82.1352069  64.3979741  56.4893951  80.8592628  64.0779074  56.1047290
  81.5399588  64.4465556  55.9823995  77.0337400  63.3855183  52.5649524
  77.1197652  63.0087051  53.3463054  77.6613197  63.0115629  52.0869482
  77.1393951  63.2740665  52.6095001  81.7899515  61.0597278  50.6932408
  81.8915652  61.8623439  51.0213384  82.5855402  60.8584614  50.3955489
  81.9227421  61.1483177  50.6967764  82.6063247  61.1744456  58.4353530
  82.4648739  60.3228397  58.5598038  82.8903811  61.2173117  57.6115736
  82.6271094  61.0544206  58.3321154  82.0676570  63.6790488  51.8811802
  82.4475535  64.0975033  51.2172069  81.4931935  64.2603944  52.1880645
  82.0387895  63.8268347  51.8288543  78.1387884  65.9856517  56.4321194
  78.0331333  65.9403361  55.5673278  77.3888104  66.3310298  56.7135479
  78.0123487  66.0297425  56.3458524  80.2767164  64.1199570  58.9494196
  79.7293883  63.4500216  59.0675064  81.0659542  63.7529418  59.0137663
  80.3119348  63.9664557  58.9762896  79.0354133  63.3320378  56.1040219
  78.8575895  62.8796987  56.8295134  78.7473156  64.1346539  56.2878696
  78.9667087  63.3842936  56.2383722  80.7726603  65.8648102  53.2161978
  79.9072123  65.8533792  53.1044749  80.8725419  65.6778325  54.0633117
  80.6600770  65.8354163  53.3250922  78.9747916  68.5653726  56.3069615
  78.8772194  67.7549998  56.6159672  79.7576785  68.5445520  55.9215883
  79.0764052  68.4420817  56.2956478  53.4115370   2.9925174  38.0706014
  52.6598270   2.6140712  37.8422059  53.8601382   3.0243608  37.3224825
  53.3665037   2.9410781  37.9263516  58.4044621   5.3664812  39.4402673
  58.7884001   5.9351711  38.9007448  58.3403762   4.6414323  38.9608489
  58.4518048   5.3440276  39.2896536  54.8300866   7.9221155  41.7383643
  55.4738321   8.3634319  42.1279801  55.1557121   7.1174582  41.6513902
  54.9732695   7.8686350  41.7829120  49.7482495   3.9049524  41.2377327
  49.2650073   4.6300013  41.2136910  50.5605813   4.2025654  41.3487484
  49.7973243   4.0551877  41.2504606  52.6026693   4.4205700  41.3897606
  53.3047272   3.9057689  41.4470363  52.5224176   4.7479851  42.1944482
  52.6950453   4.3919926  41.5170399  59.7450694   4.4895639  46.1153553
  58.9465940   4.2495140  46.3727422  60.1936705   4.5410032  46.8620601
  59.6925305   4.4618031  46.2638478  55.6279847   3.7387953  36.0793887
  55.9178146   3.3476934  35.3553114  56.3583328   3.9204658  36.5199163
  55.7786731   3.7081767  36.0376694  53.5685763   5.7155335  39.1454037
  53.3486058   5.4252690  39.9380704  53.3480285   5.0570290  38.6171950
  53.5033357   5.5755044  39.1842946  55.7353718   7.0884725  37.9284730
  56.3877776   6.5561167  38.1575756  55.0379327   6.7353377  38.3152604
  55.7284436   6.9574248  38.0196897  54.5679695   4.3193244  45.7922075
  54.7169259   3.7596160  45.1395479  55.3479697   4.3985246  46.1754594
  54.7053789   4.2478810  45.7519024  57.0932996   4.4907887  47.0706566
  57.0176667   3.8216698  47.6257354  57.0222855   5.1925675  47.5847232
  57.0713603   4.4952794  47.2283414  56.4824630   7.8976207  45.5284566
  56.9720561   7.1986996  45.3460231  55.9108862   7.6000077  46.1160624
  56.4709160   7.7502430  45.5885607  57.5603760   5.3558668  43.8681700
  57.3369414   4.5977497  44.2365726  57.0713603   5.3856689  43.1462139
  57.4547209   5.2480893  43.8158440  56.2082217   5.5759126  41.3218784
  55.7942615   4.9133256  40.9322626  56.8929591   5.7236985  40.8014478
  56.2480589   5.4999784  41.1875281  59.5747511   4.7349211  42.0742401
  59.1763794   4.8451482  41.3063221  58.9598731   4.9431278  42.6568961
  59.4246400   4.7822779  42.0473700  53.1736686   6.0168208  43.7232130
  53.4883245   6.8304596  43.7309912  53.5830100   5.6318427  44.3914289
  53.2804784   6.0796910  43.8236222  70.0006814   8.9747764  42.3068783
  69.1444709   9.1356262  42.3577900  70.0474468   8.1039828  42.3273844
  69.8805925   8.8698566  42.3174849  64.3847954  18.5110482  38.0706014
  63.6330853  18.1326020  37.8422059  64.8333965  18.5428916  37.3224825
  64.3397620  18.4596089  37.9263516  73.3100530  15.2434290  51.9129239
  74.0167298  14.7486321  52.0416173  73.4988466  15.6843371  51.1831897
  73.4428436  15.2352640  51.8238284  69.8372914  18.9335852  33.4991561
  69.5024282  19.6112773  33.0635784  70.3499784  18.5441163  32.9108433
  69.8638495  18.9760430  33.3478353  69.3777205  20.8850120  39.4402673
  69.7616584  21.4537019  38.9007448  69.3136346  20.1599631  38.9608489
  69.4250632  20.8625584  39.2896536  72.8458635  11.0339808  44.9500434
  73.3914595  11.7124895  45.0094404  72.7875511  10.8927269  44.0902016
  72.9174549  11.1131810  44.8312495  65.9632710  18.5228874  40.3368787
  66.0643073  17.7129228  40.6465915  65.3674455  18.4285821  39.7068465
  65.8905248  18.3893902  40.2895025  74.6223704  12.4624415  35.8234162
  74.5063230  13.2132101  36.2526300  75.4179590  12.2048368  36.0730249
  74.7228293  12.5359262  35.9238254  65.8033449  23.4406463  41.7383643
  66.4470905  23.8819627  42.1279801  66.1289705  22.6359890  41.6513902
  65.9465278  23.3871658  41.7829120  59.1597754  14.5449161  39.9621120
  58.9247939  13.7116813  39.8553389  59.2983395  14.8253826  39.1482321
  59.1453417  14.4632664  39.8263475  61.4587842   6.7134891  42.8605428
  60.8392873   6.1227539  42.6915443  61.3571705   7.3046327  42.2269751
  61.3525517   6.7138974  42.7410418  66.5054029  16.4518438  37.1103505
  66.8269870  16.9923646  36.5064813  67.1526126  15.8815210  37.2425794
  66.6480084  16.4477613  37.0410540  68.5555737   8.4534433  37.1937891
  69.2535902   8.6322561  37.6859355  68.8708070   7.9304773  36.5708281
  68.7051074   8.4028205  37.1739901  61.1856975  10.2587173  45.1048997
  61.0615671  10.8449619  45.7398816  61.8375259   9.7647369  45.4061272
  61.2630624  10.2725978  45.2434926  68.7443673  14.8404878  37.1817683
  69.1837308  14.2321979  37.6272456  68.5948335  14.4612252  36.4103148
  68.7865138  14.6943349  37.1336850  66.2115316  13.4348890  44.3836508
  66.8564318  12.9421333  44.0647457  66.4517093  13.5773677  45.2102587
  66.3425901  13.3826332  44.4586041  68.7501407  16.2803796  44.0343401
  69.0324650  15.4855202  43.8130157  69.4787567  16.7584383  44.0548462
  68.8990971  16.2338393  44.0046416  72.3453009  13.1932059  34.1348452
  72.2604304  14.0493026  34.2798021  72.8337392  12.9176384  34.8030611
  72.4041906  13.2789381  34.2550533  73.2771442   9.8116854  35.6346187
  72.7482914  10.0276487  36.2943493  73.7996462  10.5052992  35.5547156
  73.2759895   9.9459991  35.7201786  78.7319495  15.3863158  41.0079232
  77.9017198  15.5973802  41.1712648  78.6828748  14.5600213  40.7321515
  78.6026231  15.2952764  40.9916597  65.1671050  13.7080070  34.4353655
  64.5828265  14.2130102  34.8419519  64.7641145  13.4822457  33.6950247
  65.0210354  13.7488319  34.3858680  60.7215079  19.4234832  41.2377327
  60.2382657  20.1485321  41.2136910  61.5338397  19.7210962  41.3487484
  60.7705827  19.5737185  41.2504606  66.7929233  18.2167012  43.8427141
  66.2756174  17.8574427  43.2388449  67.4903624  17.6929187  43.8533207
  66.8194814  18.0864700  43.7557400  70.4492825  18.6661826  49.8043314
  70.5376171  18.4787967  50.6521524  70.8782537  18.0199256  49.4048161
  70.5254927  18.5424834  49.8715066  68.0163285  17.9492986  48.7860976
  67.4534119  17.5365596  49.3100638  68.7784308  17.8745892  49.2054120
  68.0457733  17.8770387  48.9253977  69.6248265   9.9545723  32.9122576
  69.8644268  10.1623706  32.0997919  69.9464106   9.1503231  33.0211520
  69.7085422   9.8659824  32.8083129  63.5759276  19.9391007  41.3897606
  64.2779855  19.4242997  41.4470363  63.4956759  20.2665159  42.1944482
  63.6683036  19.9105234  41.5170399  64.6238183  10.1766594  50.5178022
  64.7958686  10.0672489  51.3663303  65.1607540  10.8221000  50.2809214
  64.7283187  10.2558596  50.6083118  62.9010051  16.1297359  40.8983214
  63.7398951  16.3620292  40.9456976  62.9321821  15.2601671  40.8290250
  63.0291769  16.0354306  40.8947859  63.5262754  16.5498235  45.1996520
  64.0660979  16.4069366  45.8699892  62.8432701  16.9494985  45.5680546
  63.5054908  16.5877906  45.3530942  72.9503639  12.2289235  40.3941544
  73.7061154  12.6620750  40.4330453  73.0565964  11.5794005  40.9676180
  73.0773810  12.1966719  40.4839570  75.9883810  16.0562513  41.1443947
  75.5519042  16.0599255  41.9002919  75.6546726  16.7368012  40.7123525
  75.8746430  16.1574968  41.1924780  70.5612884  18.0970845  52.4687098
  71.3453301  18.2101693  52.8342840  70.3609479  17.2711982  52.6645783
  70.6478909  17.9917565  52.5521484  58.9299900  12.7698525  45.3530942
  58.6638315  11.9537642  45.5121932  58.9438464  12.8151681  44.4826457
  58.8924622  12.6555430  45.2484424  62.8357647   7.5683610  31.9682700
  62.1215824   7.2821789  32.3805132  63.3201615   7.9080236  32.6089087
  62.8017010   7.5765260  32.1238335  63.6798506   6.3076904  47.9997949
  62.9870303   5.8373883  48.2458681  64.2958833   6.0815208  48.5739656
  63.6683036   6.2044036  48.1207102  70.7183277  20.0080947  46.1153553
  69.9198523  19.7680447  46.3727422  71.1669289  20.0595340  46.8620601
  70.6657889  19.9803339  46.2638478  79.1228157  12.7743432  40.0363585
  79.7844591  12.2134101  39.9359493  78.4819569  12.2795463  40.3616276
  79.1257024  12.6179841  40.0695925  70.0104964  16.0713564  32.3444508
  70.4256113  15.7398588  31.6529004  69.1796894  15.8382466  32.2164644
  69.9492973  15.9884820  32.2235355  59.3393313  13.5557305  42.6342686
  59.1568886  13.5304191  41.7814978  60.0742982  14.0256243  42.6731595
  59.4207377  13.6218667  42.5140604  75.4092987  13.7908815  39.7775573
  75.6448577  13.9354014  38.9502424  75.5582551  14.5551223  40.1707087
  75.4658791  13.9247869  39.7139177  62.4039065  10.2742308  49.1424794
  63.1279037  10.2595338  49.6289689  62.5055201  10.9837663  48.6446763
  62.5257274  10.3767011  49.1403581  77.2383444  12.6310481  37.6145177
  77.5691661  13.1638121  37.0085272  77.8116532  12.6849369  38.2707128
  77.3717123  12.7180050  37.6222959  69.7784014  13.7541392  54.0073741
  68.9856995  14.0684904  54.1926361  69.8932941  13.9692861  53.1694526
  69.6779425  13.8325229  53.9112076  72.4515333  10.4775383  38.2968757
  72.5462188  11.2164678  38.7508383  71.8274177  10.0492859  38.7303322
  72.3724363  10.5236704  38.4276905  70.7067807  13.6561596  48.9459038
  71.2806669  13.0188840  49.1007602  70.6282611  13.6565679  48.0768696
  70.7801042  13.5626707  48.8405449  59.3064224  10.4350806  42.7841752
  59.8837726  10.2987256  43.4233998  58.6078285   9.9786590  43.0387337
  59.2885245  10.3473072  42.9164042  72.7038355  12.3224123  31.5305709
  72.6218517  12.3926310  32.3960696  73.3418075  12.8853867  31.3389450
  72.7858192  12.4163094  31.6295659  66.0631526  12.0884861  40.9980236
  65.8050770  11.2556596  40.9711535  66.1180009  12.3142474  40.1572736
  66.0331304  11.9982632  40.8700372  65.0366238   9.6422624  41.4845130
  64.4615829   9.8014792  42.1209091  64.6601914   9.0058033  41.0213581
  64.8969050   9.5720437  41.5099689  68.7039527   8.1145973  46.3437509
  68.3153959   7.6900191  45.6889700  68.0394225   8.3628123  46.8514535
  68.5486454   8.0884694  46.3225377  54.7823057   9.2862698  39.4989571
  54.8683309   8.9094567  40.2803101  55.4098854   8.9123144  39.0209529
  54.8879608   9.1748181  39.5435048  69.8078465  12.3444578  34.5414316
  70.6219104  12.6359470  34.4297087  69.7437606  11.6904440  33.9672609
  69.9181204  12.2909772  34.4403153  76.0287955  15.0270574  48.9543891
  75.7926592  14.1958638  48.8355952  76.6731184  14.9756181  49.5398736
  76.0882626  14.8968262  49.0229785  65.6786373  15.8166095  39.6686628
  66.3160320  15.5777843  40.2138421  66.1041445  16.0203254  38.9339788
  65.8362539  15.8117105  39.6403785  60.3699015  18.0554431  43.5520932
  60.4103161  18.3269283  42.7240711  60.9293539  18.5796340  43.9678719
  60.4582361  18.1730187  43.4912820  66.3189188  11.0368385  34.0061517
  66.7034341  10.8176091  34.7578062  66.0700808  11.8631330  34.1362594
  66.3391261  11.1266531  34.1362594  77.0524376  14.8115022  45.0172186
  76.7470193  15.5443079  45.3785501  76.3330591  14.4052952  44.7364972
  76.9011718  14.8596755  45.0285323  68.0607845  16.2938518  41.3480414
  68.1346853  16.1313689  42.2022264  68.8777351  16.4828707  41.1040896
  68.1924204  16.2975260  41.4378440  66.6012431  19.2573261  36.0793887
  66.8910729  18.8662242  35.3553114  67.3315912  19.4389966  36.5199163
  66.7519315  19.2267074  36.0376694  67.1907176  14.0591007  47.1647018
  66.6918870  14.7706774  47.2431906  68.0007400  14.3791673  47.1265180
  67.2363283  14.2117855  47.1703587  64.5418346  21.2340643  39.1454037
  64.3218642  20.9437998  39.9380704  64.3212868  20.5755598  38.6171950
  64.4765940  21.0940351  39.1842946  63.4535294  13.3213960  41.4109739
  63.1648542  12.6951431  41.9455466  64.3218642  13.2634247  41.4774419
  63.5395545  13.2201504  41.5000693  66.7086302  22.6070033  37.9284730
  67.3610360  22.0746475  38.1575756  66.0111911  22.2538685  38.3152604
  66.7017020  22.4759556  38.0196897  63.6567567  14.9609211  37.3352104
  64.4113535  15.3422250  37.5487566  63.0638180  15.4120354  37.7898800
  63.6804280  15.0838038  37.4334982  74.7026220  14.9274447  37.2715709
  75.2684253  15.5867657  37.1874252  74.0554124  15.2724145  37.7432111
  74.6904977  15.0756388  37.3288465  66.1174234   6.9172051  52.4609316
  65.3074010   7.2229831  52.3499159  66.5948921   7.6377633  52.5761900
  66.0677713   7.0686652  52.4616387  64.9765793  16.1317772  42.7092219
  64.4546547  16.2718064  43.3944084  65.3639814  15.3728436  42.8994337
  64.9569494  16.0403296  42.8393296  61.9656978   6.1823581  36.7787174
  61.6781773   5.8124851  36.0419121  62.6527446   6.6518436  36.5170879
  62.0245875   6.1970550  36.6302250  66.4032119  13.1621791  38.1073710
  66.2074902  13.7696526  37.5134013  66.6266465  12.4689735  37.6265384
  66.4066760  13.1499317  37.9489791  64.8010649  10.0476529  38.2254579
  65.5233301  10.2117687  37.7658385  64.3218642  10.7686194  38.1193918
  64.8374380  10.1774759  38.1420193  62.4518266  12.4534601  47.3308719
  62.9639363  12.7318855  46.6817478  62.1654608  13.1923895  47.6971532
  62.4853129  12.6036955  47.2898597  76.6361681  11.5908315  40.8912505
  76.5495655  11.7463741  41.7447284  76.1812160  12.2346390  40.5171910
  76.5564937  11.7084070  40.9619612  59.5385172   6.9604793  37.6272455
  59.6401309   7.7630955  37.9553430  60.3341059   6.7592129  37.3295536
  59.6713078   7.0490692  37.6307810  60.3548904   7.0751971  45.3693577
  60.2134396   6.2235912  45.4938085  60.6389468   7.1180632  44.5455783
  60.3756750   6.9551721  45.2661201  70.5087497   8.9119062  39.5138065
  70.2622211   8.8314813  40.3474854  70.8372620   8.1272529  39.3200592
  70.5208740   8.7845327  39.6085588  74.4035545  15.6202421  43.3024846
  74.2649905  16.3183467  43.8073589  73.6235543  15.4651077  42.9461028
  74.2678772  15.7002588  43.3251120  72.7413631  11.9198796  49.5547228
  72.7361669  11.0478613  49.5589654  73.4474624  12.1186965  49.0816684
  72.8458635  11.8202670  49.4854263  66.4684524  11.6475780  48.9261048
  66.6127900  12.2276988  48.2904158  66.8160172  12.0252077  49.6310903
  66.5411985  11.7896484  48.9360043  68.6404441  10.8465949  46.7086180
  67.8927755  11.0396963  46.3034458  68.7945966  10.0211168  46.4710301
  68.5526869  10.7531060  46.6131585  65.5412279  19.8378552  45.7922075
  65.6901843  19.2781468  45.1395479  66.3212281  19.9170554  46.1754594
  65.6786372  19.7664117  45.7519024  75.8988918  14.9780675  34.0641345
  75.5195727  14.1917813  34.0570635  75.2355164  15.5267532  33.9212990
  75.7447393  14.9425499  34.0422142  68.0665579  20.0093195  47.0706566
  67.9909251  19.3402005  47.6257354  67.9955439  20.7110983  47.5847232
  68.0446186  20.0138102  47.2283414  68.7235826  18.5294194  37.9030172
  69.4885718  18.2603838  37.5812836  68.6213916  18.0444204  38.6200234
  68.8217322  18.4183758  37.9609999  71.2454487  15.5606378  29.8830121
  72.0127472  15.6206503  29.4735973  70.7985796  14.9886819  29.3986439
  71.2927914  15.4842953  29.7507831  72.1432282  14.3661033  42.1682853
  71.4677284  14.1346266  42.6696240  72.1524659  13.7582216  41.5424958
  72.0450787  14.2419959  42.1499005  69.2726426   9.2078862  48.9246906
  69.2085568  10.0688819  48.7967043  69.4123614   8.8910856  48.1242458
  69.2841896   9.2879029  48.7875119  74.1449017  17.2226166  34.3993031
  74.2268854  18.0293152  34.0754482  74.6298759  17.2422125  35.1233805
  74.2286175  17.3446828  34.4579930  67.9545520  11.9011002  43.0663109
  67.5307769  12.1015501  42.3302128  67.7790376  11.0539850  43.1787409
  67.8656401  11.8059783  42.9736799  67.4557214  23.4161515  45.5284566
  67.9453144  22.7172304  45.3460231  66.8841446  23.1185385  46.1160624
  67.4441744  23.2687738  45.5885607  63.2427965  12.3963053  38.4991082
  63.3992584  12.3309856  39.3547074  63.5828558  13.1711606  38.2869761
  63.3161200  12.5012251  38.5945676  69.7807110  11.7720937  37.3684445
  70.3222655  11.2691318  37.8323065  70.0953669  11.7186131  36.5573930
  69.9071507  11.6900358  37.3168257  73.6524217  15.9823584  54.4811357
  74.4659083  15.7108733  54.6416490  73.4919184  15.6831124  53.6771553
  73.7494166  15.8978510  54.3856763  67.9493560  17.1638288  34.6524473
  68.0186380  16.3052827  34.7917473  68.7282015  17.3810169  34.3243497
  68.0746410  17.0691152  34.6241630  72.3401047  19.5875990  38.8660966
  71.9480839  19.2842705  38.1483832  72.4954119  20.4245079  38.6765920
  72.3054637  19.6659826  38.7317463  59.8162227   9.5798004  38.8151849
  60.1961192   9.9982549  38.1512116  59.2417592  10.1611459  39.1220692
  59.7873552   9.7275862  38.7628590  72.5040722  16.1525978  38.8066997
  72.1455377  16.3240621  39.5831029  72.0179433  16.6139184  38.2494995
  72.3799419  16.2464949  38.8392266  67.2929087  11.8325144  31.3467231
  67.5821612  12.6090026  31.6210805  67.3800886  11.3213875  32.0481730
  67.3483344  11.8717062  31.4909729  70.1888975   9.6806378  53.1418755
  70.6588606  10.3048494  53.5286629  70.2350855   9.0123353  53.7011969
  70.2656851   9.6741058  53.2818826  73.6645461  17.0429874  49.7534198
  74.3025182  16.5490070  49.4196654  73.0219553  16.9707275  49.1686425
  73.6639688  16.9588883  49.6176553  73.7199718  17.7349683  46.3939554
  74.5092096  17.3838747  46.5141636  73.8943316  18.5486071  46.1316188
  73.8620000  17.8035540  46.3727422  63.4593028  11.1458408  43.4467343
  62.6181035  11.0462283  43.6546237  63.6683036  11.9153889  43.7981664
  63.3657721  11.2450452  43.5294658  60.9368595   8.7677945  41.2752094
  60.5425293   8.8420957  40.5002204  60.3808712   9.1535892  41.8260456
  60.7971408   8.8359720  41.2419754  67.2709693   9.0739808  42.6964941
  66.9672831   8.5195796  43.2975348  66.5689114   9.2532017  42.2092975
  67.1225903   9.0184590  42.7134646  65.3328044  16.2889528  47.4037039
  65.2248399  16.2991590  48.2699097  65.5423826  17.1144309  47.2141992
  65.3478155  16.4130603  47.5041130  63.3501836  13.5402171  44.8658976
  62.7589769  14.1811669  44.8361991  64.1122860  13.9639788  44.8390276
  63.3750097  13.6978009  44.8574123  79.4692258  13.3707940  45.8636254
  79.5275381  13.8194589  46.6096231  78.8358725  13.7806753  45.4266334
  79.3843553  13.4981675  45.9088803  73.1091352  18.9911482  42.2991001
  72.9111041  19.4802297  41.6047212  72.4879063  19.1952724  42.8775134
  72.9878917  19.0928020  42.2814224  67.1699331  10.7596379  36.6401245
  67.9141376  11.1470655  36.8784195  67.3160027   9.9153804  36.8041733
  67.3009916  10.6926852  36.6995215  60.5350237   8.3293359  47.9078710
  61.3975850   8.2289068  47.8216040  60.2042020   7.7488068  47.3464282
  60.6135433   8.2284986  47.8124116  76.4213937  11.3924228  43.9501945
  76.1812160  10.5530643  43.9544371  76.9005944  11.4724395  44.6742718
  76.4566121  11.2805628  44.0576747  75.0265154  12.5575635  47.8336249
  75.7499353  12.1048161  47.6547269  74.7615117  12.8380300  47.0508577
  75.0946428  12.5326603  47.6914964  63.8952023   7.1535808  44.5689128
  63.2705093   7.1654200  43.9615081  63.5597618   7.6295983  45.2180368
  63.7537515   7.2254325  44.5745697  60.6077698  15.2136268  46.0092892
  60.0777623  14.5228707  46.0587867  60.8802792  15.2046453  45.1805601
  60.5702421  15.1103400  45.8940308  71.6397789  15.7961971  34.7330575
  72.3631988  16.2620083  34.5895148  71.1998380  15.8635580  33.9828172
  71.6813481  15.8745807  34.6015356  70.8083944  12.6559513  45.9831264
  70.1940937  12.1117563  46.2779899  71.3251229  12.1423749  45.5037080
  70.7939606  12.4995922  45.9555492  70.0480241  13.7263783  43.7175563
  69.6207849  13.1013501  43.2840998  70.0405185  13.4438705  44.5434570
  69.9839382  13.5916563  43.7755390  63.1642768   8.7628956  46.7863997
  63.3236255   8.0072280  47.1915719  62.9835662   9.3119895  47.4404734
  63.1608127   8.7322770  46.9426703  55.8873541  11.8864032  43.3661241
  55.7816990  11.8410877  42.5013325  55.1373761  12.2317813  43.6475526
  55.7609143  11.9304940  43.2798570  66.8396886  12.8964096  51.4144136
  65.9892516  13.0335810  51.5501780  67.0025014  12.1627874  51.8591837
  66.7380749  12.8078197  51.4999735  66.0781636   9.8463865  45.6097740
  65.2473566  10.0137683  45.4032988  66.0233154   9.4699816  46.3946625
  65.9471051   9.8153597  45.6946268  64.4517680   8.1219457  36.1387858
  64.5920641   8.6191921  36.8416499  64.9500213   7.4205751  36.2802071
  64.5458761   8.0921436  36.2639437  64.4817903   8.9886568  33.4680435
  65.1162982   9.5846993  33.4029896  64.5643513   8.6890026  34.2826305
  64.5874454   9.0327476  33.5783521  77.4600468  11.5202045  46.3366799
  78.0518309  12.1599296  46.3684997  77.8959463  10.8225082  46.6258866
  77.6118900  11.5120396  46.3847631  69.2893858  15.9419418  46.9624693
  68.7818949  16.4955265  47.4065323  68.9920504  16.0027708  46.1443467
  69.1698743  16.0325729  46.9073149  60.9870890  11.1854409  36.7369981
  61.4963120  11.7818916  37.1181286  61.4605163  10.9180382  36.0546400
  61.1314266  11.2340224  36.6924503  71.9001639  19.8582675  34.8928636
  71.1830948  19.6843538  34.4275873  72.5508376  19.6235248  34.3604122
  71.8903489  19.7978468  34.7457854  68.5336343  20.8743976  43.8681700
  68.3101998  20.1162805  44.2365726  68.0446187  20.9041997  43.1462139
  68.4279792  20.7666200  43.8158440  63.3461422   7.8210667  39.6043161
  62.6273411   8.2374800  39.8716025  63.7173784   8.3864906  39.0534799
  63.2953354   7.9659949  39.5625968  70.5907333  15.0425708  51.4193633
  70.5503188  14.3975385  50.8338789  71.4030651  14.9862326  51.7319045
  70.7050486  14.9384675  51.3790582  67.1814800  21.0944434  41.3218784
  66.7675199  20.4318564  40.9322626  67.8662175  21.2422293  40.8014478
  67.2213172  21.0185092  41.1875281  70.5480095  20.2534519  42.0742401
  70.1496378  20.3636790  41.3063221  69.9331314  20.4616586  42.6568961
  70.3978984  20.3008087  42.0473700  66.2785042   8.6722645  47.9743391
  65.7663945   8.0643828  48.3328422  66.1064538   9.3879237  48.4417367
  66.1774679   8.6885944  48.0959615  61.1250756   7.1160220  50.6245753
  60.9553347   7.7761595  50.0793959  60.6816706   7.3266781  51.3458242
  61.0350090   7.2446202  50.6507382  78.2821937  14.8286486  35.4585491
  78.6655543  15.5777842  35.6883588  77.4866051  15.0752306  35.1997480
  78.2215719  14.9756180  35.4543065  58.0252821  10.0207086  45.8834242
  57.4779540   9.3507731  46.0015111  58.8145199   9.6536933  45.9477710
  58.0605004   9.8672072  45.9102943  67.8737229   9.6814543  51.3797654
  68.6248556   9.9966220  51.6937208  68.0659806   9.4793714  50.5531575
  68.0128643   9.6981924  51.3041049  67.0937229   7.5005918  33.0345870
  67.4736194   7.5185547  32.2496985  66.3529825   7.9459907  32.9136718
  67.0406067   7.5687692  32.9009438  56.7839790   9.2327893  43.0380266
  56.6061551   8.7804502  43.7635181  56.4958812  10.0354055  43.2218743
  56.7152743   9.2850451  43.1723768  72.4463371  10.4885611  42.2757656
  72.9417037   9.7708606  42.2361676  71.6363147  10.1856408  42.1612143
  72.4007265  10.3383257  42.2531382  67.8921983  14.3383424  34.4254660
  67.0833306  14.0150098  34.3787970  68.3996892  13.6316646  34.3582909
  67.8471650  14.1864740  34.4084955  58.5212260  11.7655617  40.1502025
  57.6557780  11.7541308  40.0384796  58.6211076  11.5785840  40.9973164
  58.4086427  11.7361678  40.2590969  74.5115190  13.2389298  44.9634785
  74.9370262  12.7163720  44.4105210  74.1472110  13.8370136  44.4423408
  74.5201793  13.2499525  44.8043794  64.1469270  21.5353516  43.7232130
  64.4615829  22.3489904  43.7309912  64.5562683  21.1503734  44.3914289
  64.2537368  21.5982218  43.8236222  71.0993790  16.9523563  41.2935942
  71.5704968  17.6663825  41.4625927  71.4353968  16.3522313  41.8295812
  71.2188905  16.9695027  41.3968318  73.1870774  18.5624876  53.4728014
  73.2967740  17.7733436  53.8284761  73.5161671  18.4730812  52.6702352
  73.2523180  18.4330729  53.4070405  71.7367736  16.7441497  48.0563635
  71.1888682  16.1199380  47.7883700  72.1980765  16.9335769  47.3407714
  71.7234945  16.6800547  47.9114066  61.4882290  15.4826624  43.3710739
  62.0927148  15.4422458  42.7424559  61.2809603  16.3297776  43.4014794
  61.5471187  15.6014627  43.2826855  71.3026062  17.7492569  44.5872976
  72.1224436  17.6055535  44.8489271  71.0220140  18.3738768  45.1289414
  71.3822806  17.8202921  44.7060915  56.7233572  14.4661242  43.2409662
  56.6257850  13.6557513  43.5499718  57.5062442  14.4453035  42.8555930
  56.8249709  14.3428332  43.2296525  80.9739398  24.4933072  42.3068783
  80.1177293  24.6541570  42.3577900  81.0207051  23.6225136  42.3273844
  80.8538509  24.3883874  42.3174849  75.3580537  34.0295790  38.0706014
  74.6063437  33.6511328  37.8422059  75.8066549  34.0614224  37.3224825
  75.3130204  33.9781397  37.9263516  80.8105497  34.4521159  33.4991561
  80.4756866  35.1298081  33.0635784  81.3232368  34.0626471  32.9108433
  80.8371078  34.4945738  33.3478353  80.3509788  36.4035428  39.4402673
  80.7349168  36.9722327  38.9007448  80.2868930  35.6784938  38.9608489
  80.3983216  36.3810892  39.2896536  76.9365293  34.0414182  40.3368787
  77.0375656  33.2314536  40.6465915  76.3407039  33.9471129  39.7068465
  76.8637832  33.9079210  40.2895025  76.7766033  38.9591771  41.7383643
  77.4203488  39.4004935  42.1279801  77.1022289  38.1545197  41.6513902
  76.9197862  38.9056966  41.7829120  70.1330338  30.0634469  39.9621120
  69.8980522  29.2302121  39.8553389  70.2715978  30.3439134  39.1482321
  70.1186000  29.9817972  39.8263475  72.4320425  22.2320199  42.8605428
  71.8125457  21.6412847  42.6915443  72.3304289  22.8231635  42.2269751
  72.3258101  22.2324282  42.7410418  77.4786613  31.9703746  37.1103505
  77.8002454  32.5108953  36.5064813  78.1258709  31.4000518  37.2425794
  77.6212668  31.9662921  37.0410540  79.5288321  23.9719741  37.1937891
  80.2268485  24.1507869  37.6859355  79.8440653  23.4490080  36.5708281
  79.6783658  23.9213513  37.1739901  72.1589558  25.7772481  45.1048997
  72.0348255  26.3634927  45.7398816  72.8107843  25.2832677  45.4061272
  72.2363208  25.7911285  45.2434926  79.7176256  30.3590186  37.1817683
  80.1569892  29.7507287  37.6272456  79.5680919  29.9797559  36.4103148
  79.7597722  30.2128657  37.1336850  77.1847899  28.9534198  44.3836508
  77.8296902  28.4606641  44.0647457  77.4249676  29.0958985  45.2102587
  77.3158484  28.9011640  44.4586041  79.7233991  31.7989104  44.0343401
  80.0057233  31.0040510  43.8130157  80.4520151  32.2769691  44.0548462
  79.8723554  31.7523701  44.0046416  77.7015184  19.3412138  41.2759166
  77.3718514  19.7923281  40.6062865  77.0260186  19.2628301  41.8232172
  77.5525621  19.3963273  41.2582389  76.1403634  29.2265378  34.4353655
  75.5560849  29.7315410  34.8419519  75.7373729  29.0007765  33.6950247
  75.9942938  29.2673627  34.3858680  71.6947662  34.9420139  41.2377327
  71.2115241  35.6670629  41.2136910  72.5070981  35.2396270  41.3487484
  71.7438410  35.0922493  41.2504606  77.7661816  33.7352320  43.8427141
  77.2488758  33.3759735  43.2388449  78.4636208  33.2114495  43.8533207
  77.7927398  33.6050008  43.7557400  81.4225408  34.1847134  49.8043314
  81.5108754  33.9973275  50.6521524  81.8515121  33.5384564  49.4048161
  81.4987511  34.0610142  49.8715066  78.9895868  33.4678294  48.7860976
  78.4266703  33.0550904  49.3100638  79.7516892  33.3931200  49.2054120
  79.0190317  33.3955695  48.9253977  80.5980848  25.4731030  32.9122576
  80.8376852  25.6809014  32.0997919  80.9196689  24.6688539  33.0211520
  80.6818006  25.3845132  32.8083129  75.9071138  17.4024426  36.7582114
  76.6617106  17.7702743  36.5199164  75.7298673  17.7763981  37.5261293
  75.9925617  17.5122614  36.8367002  74.5491860  35.4576315  41.3897606
  75.2512439  34.9428304  41.4470363  74.4689343  35.7850467  42.1944482
  74.6415620  35.4290542  41.5170399  75.5970766  25.6951902  50.5178022
  75.7691270  25.5857797  51.3663303  76.1340124  26.3406308  50.2809214
  75.7015770  25.7743904  50.6083118  74.2628203  19.8094745  33.4560227
  74.0803776  20.0266626  32.6301219  75.1253816  19.9233758  33.5118841
  74.3632793  19.8584643  33.3414714  73.8742635  31.6482667  40.8983214
  74.7131534  31.8805600  40.9456976  73.9054404  30.7786979  40.8290250
  74.0024353  31.5539614  40.8947859  74.4995338  32.0683543  45.1996520
  75.0393563  31.9254674  45.8699892  73.8165284  32.4680293  45.5680546
  74.4787492  32.1063214  45.3530942  79.9427922  16.8121156  36.4909250
  80.6714083  16.6337111  36.0447407  80.0322815  17.6539236  36.7016429
  80.0634584  16.9105034  36.4562768  81.5345468  33.6156153  52.4687098
  82.3185884  33.7287001  52.8342840  81.3342062  32.7897290  52.6645783
  81.6211493  33.5102873  52.5521484  69.9032483  28.2883833  45.3530942
  69.6370898  27.4722950  45.5121932  69.9171047  28.3336989  44.4826457
  69.8657205  28.1740738  45.2484424  73.8090230  23.0868918  31.9682700
  73.0948407  22.8007097  32.3805132  74.2934199  23.4265544  32.6089087
  73.7749593  23.0950567  32.1238335  74.6531090  21.8262212  47.9997949
  73.9602886  21.3559191  48.2458681  75.2691417  21.6000516  48.5739656
  74.6415619  21.7229343  48.1207102  81.6915861  35.5266255  46.1153553
  80.8931107  35.2865755  46.3727422  82.1401873  35.5780648  46.8620601
  81.6390472  35.4988646  46.2638478  80.9837548  31.5898872  32.3444508
  81.3988697  31.2583896  31.6529004  80.1529478  31.3567774  32.2164644
  80.9225557  31.5070128  32.2235355  70.3125897  29.0742613  42.6342686
  70.1301470  29.0489499  41.7814978  71.0475566  29.5441551  42.6731595
  70.3939961  29.1403975  42.5140604  73.3771648  25.7927616  49.1424794
  74.1011621  25.7780646  49.6289689  73.4787785  26.5022971  48.6446763
  73.4989858  25.8952319  49.1403581  80.7516598  29.2726700  54.0073741
  79.9589579  29.5870212  54.1926361  80.8665525  29.4878169  53.1694526
  80.6512008  29.3510537  53.9112076  81.6800391  29.1746904  48.9459038
  82.2539252  28.5374148  49.1007602  81.6015194  29.1750986  48.0768696
  81.7533626  29.0812015  48.8405449  70.2796807  25.9536113  42.7841752
  70.8570310  25.8172564  43.4233998  69.5810869  25.4971898  43.0387337
  70.2617829  25.8658380  42.9164042  77.0364109  27.6070169  40.9980236
  76.7783354  26.7741904  40.9711535  77.0912592  27.8327782  40.1572736
  77.0063887  27.5167940  40.8700372  82.1165159  19.7098620  41.0984328
  81.4121486  19.2207805  41.2568247  82.1650134  19.7221094  40.2272773
  82.0195211  19.6388268  40.9923668  76.0098821  25.1607932  41.4845130
  75.4348413  25.3200100  42.1209091  75.6334498  24.5243341  41.0213581
  75.8701634  25.0905745  41.5099689  79.6772110  23.6331281  46.3437509
  79.2886543  23.2085499  45.6889700  79.0126808  23.8813431  46.8514535
  79.5219038  23.6070002  46.3225377  65.7555640  24.8048006  39.4989571
  65.8415892  24.4279875  40.2803101  66.3831438  24.4308452  39.0209529
  65.8612191  24.6933489  39.5435048  80.7811048  27.8629885  34.5414316
  81.5951687  28.1544778  34.4297087  80.7170190  27.2089748  33.9672609
  80.8913787  27.8095080  34.4403153  76.6518957  31.3351403  39.6686628
  77.2892904  31.0963150  40.2138421  77.0774028  31.5388562  38.9339788
  76.8095123  31.3302413  39.6403785  71.3431599  33.5739739  43.5520932
  71.3835744  33.8454590  42.7240711  71.9026123  34.0981648  43.9678719
  71.4314945  33.6915494  43.4912820  77.2921772  26.5553693  34.0061517
  77.6766924  26.3361399  34.7578062  77.0433392  27.3816638  34.1362594
  77.3123844  26.6451839  34.1362594  77.4590312  19.8360108  53.7224101
  77.1443753  20.6059671  53.4593664  77.1380245  19.2730364  53.1376328
  77.3649231  19.8670377  53.5965451  79.0340429  31.8123826  41.3480414
  79.1079437  31.6498997  42.2022264  79.8509935  32.0014015  41.1040896
  79.1656787  31.8160568  41.4378440  72.7946185  32.1581688  38.3774858
  71.9684303  32.4043426  38.2509136  72.8558176  32.0793769  39.2436916
  72.6820352  32.1826637  38.4863802  75.0122209  18.2250629  39.3370298
  74.1444634  18.2973229  39.4027907  75.2997413  19.0272708  39.5258273
  74.9261957  18.3544776  39.3745064  77.5745014  34.7758569  36.0793887
  77.8643313  34.3847550  35.3553114  78.3048495  34.9575274  36.5199163
  77.7251898  34.7452382  36.0376694  78.1639759  29.5776315  47.1647018
  77.6651453  30.2892082  47.2431906  78.9739984  29.8976981  47.1265180
  78.2095866  29.7303163  47.1703587  75.5150930  36.7525951  39.1454037
  75.2951225  36.4623306  39.9380704  75.2945452  36.0940906  38.6171950
  75.4498524  36.6125659  39.1842946  74.4267877  28.8399268  41.4109739
  74.1381126  28.2136739  41.9455466  75.2951225  28.7819555  41.4774419
  74.5128129  28.7386812  41.5000693  77.6818886  38.1255341  37.9284730
  78.3342944  37.5931783  38.1575756  76.9844494  37.7723993  38.3152604
  77.6749604  37.9944864  38.0196897  74.6300150  30.4794519  37.3352104
  75.3846118  30.8607558  37.5487566  74.0370763  30.9305662  37.7898800
  74.6536864  30.6023346  37.4334982  77.0906817  22.4357359  52.4609316
  76.2806593  22.7415139  52.3499159  77.5681504  23.1562941  52.5761900
  77.0410296  22.5871960  52.4616387  75.9498377  31.6503080  42.7092219
  75.4279131  31.7903372  43.3944084  76.3372397  30.8913744  42.8994337
  75.9302078  31.5588604  42.8393296  72.9389561  21.7008889  36.7787174
  72.6514357  21.3310159  36.0419121  73.6260029  22.1703744  36.5170879
  72.9978458  21.7155858  36.6302250  82.1465382  33.3898539  36.6952788
  81.9052058  32.6566400  36.2879853  82.3266715  33.9385396  36.0419121
  82.1373006  33.3620930  36.5383011  77.3764703  28.6807099  38.1073710
  77.1807485  29.2881833  37.5134013  77.5999048  27.9875043  37.6265384
  77.3799344  28.6684624  37.9489791  75.7743233  25.5661837  38.2254579
  76.4965885  25.7302995  37.7658385  75.2951225  26.2871502  38.1193918
  75.8106963  25.6960066  38.1420193  73.4250849  27.9719909  47.3308719
  73.9371946  28.2504163  46.6817478  73.1387192  28.7109203  47.6971532
  73.4585713  28.1222263  47.2898597  82.1806019  18.8011013  38.3378880
  82.8832371  18.6018761  37.8598838  81.9150207  18.0286955  38.6447723
  82.2452651  18.6573979  38.3124321  70.5117756  22.4790101  37.6272455
  70.6133892  23.2816263  37.9553430  71.3073642  22.2777437  37.3295536
  70.6445661  22.5676000  37.6307810  76.9434575  20.0646298  47.3909760
  76.7517772  20.0801432  48.2409184  77.7933171  20.2609972  47.3676415
  77.0410297  20.0960649  47.5133055  71.3281488  22.5937279  45.3693577
  71.1866980  21.7421220  45.4938085  71.6122051  22.6365940  44.5455783
  71.3489334  22.4737029  45.2661201  81.4820080  24.4304370  39.5138065
  81.2354794  24.3500120  40.3474854  81.8105203  23.6457837  39.3200592
  81.4941324  24.3030635  39.6085588  77.4417107  27.1661088  48.9261048
  77.5860483  27.7462296  48.2904158  77.7892756  27.5437385  49.6310903
  77.5144569  27.3081792  48.9360043  79.6137025  26.3651257  46.7086180
  78.8660339  26.5582271  46.3034458  79.7678550  25.5396476  46.4710301
  79.5259452  26.2716368  46.6131585  76.5144862  35.3563860  45.7922075
  76.6634426  34.7966776  45.1395479  77.2944865  35.4355862  46.1754594
  76.6518956  35.2849425  45.7519024  79.0398163  35.5278503  47.0706566
  78.9641834  34.8587313  47.6257354  78.9688022  36.2296291  47.5847232
  79.0178770  35.5323410  47.2283414  79.8538802  20.2601807  47.5981583
  80.3111416  20.9925782  47.7254376  79.9295131  19.8368272  48.3568839
  79.9329772  20.3059045  47.7282660  72.0971793  20.5067627  48.6871027
  71.5613983  19.8947985  49.0031794  72.1589558  21.0815763  49.3404694
  72.0267426  20.5014555  48.8306454  79.6968410  34.0479502  37.9030172
  80.4618301  33.7789145  37.5812836  79.5946500  33.5629512  38.6200234
  79.7949905  33.9369066  37.9609999  77.7321180  22.2503911  44.4423407
  76.9417254  22.0695371  44.7640743  78.1281803  21.4730864  44.4253702
  77.6738056  22.1091372  44.4875956  82.2187071  31.0791685  29.8830121
  82.9860056  31.1391810  29.4735973  81.7718379  30.5072127  29.3986439
  82.2660498  31.0028261  29.7507831  80.2459010  24.7264170  48.9246906
  80.1818151  25.5874127  48.7967043  80.3856198  24.4096163  48.1242458
  80.2574480  24.8064337  48.7875119  78.9278104  27.4196310  43.0663109
  78.5040353  27.6200809  42.3302128  78.7522959  26.5725158  43.1787409
  78.8388985  27.3245091  42.9736799  78.4289797  38.9346823  45.5284566
  78.9185728  38.2357612  45.3460231  77.8574030  38.6370693  46.1160624
  78.4174327  38.7873046  45.5885607  74.2160549  27.9148361  38.4991082
  74.3725168  27.8495164  39.3547074  74.5561142  28.6896914  38.2869761
  74.2893784  28.0197559  38.5945676  80.7539693  27.2906245  37.3684445
  81.2955239  26.7876626  37.8323065  81.0686253  27.2371439  36.5573930
  80.8804091  27.2085666  37.3168257  78.9226143  32.6823596  34.6524473
  78.9918963  31.8238135  34.7917473  79.7014598  32.8995477  34.3243497
  79.0478993  32.5876460  34.6241630  81.9028963  22.1842549  47.4206745
  82.1170932  21.5453463  46.8670099  81.2862862  22.6288373  46.9914607
  81.8434292  22.1552693  47.2757176  70.7894810  25.0983312  38.8151849
  71.1693775  25.5167856  38.1512116  70.2150175  25.6796767  39.1220692
  70.7606135  25.2461170  38.7628590  81.2943692  15.2942485  42.4094088
  80.4237249  15.2681206  42.3627398  81.5484033  15.1219677  41.5919934
  81.2037252  15.2652629  42.2814225  78.2661671  27.3510452  31.3467231
  78.5554196  28.1275334  31.6210805  78.3533470  26.8399183  32.0481730
  78.3215927  27.3902370  31.4909729  81.1621558  25.1991686  53.1418755
  81.6321190  25.8233802  53.5286629  81.2083439  24.5308661  53.7011969
  81.2389434  25.1926366  53.2818826  78.3192832  17.3048713  43.8667559
  77.8031321  16.6128905  43.9919138  77.7586761  17.9719490  43.8130157
  78.1599345  17.3011971  43.8773625  80.3885065  17.8441673  45.6960411
  80.0016819  17.8690705  46.4773941  79.9018003  17.2783352  45.2434928
  80.2597574  17.7637424  45.7448315  80.0542207  14.7308659  47.9870671
  80.6835325  15.2668959  47.7091741  80.2228070  14.6386018  48.8384237
  80.1720002  14.7970021  48.0719199  79.8556122  19.5179853  50.2597083
  80.6829551  19.2465002  50.3155697  79.8763968  20.3140695  50.6160901
  79.9808972  19.5959608  50.3212266  74.4325612  26.6643716  43.4467343
  73.5913618  26.5647590  43.6546237  74.6415620  27.4339197  43.7981664
  74.3390304  26.7635760  43.5294658  71.9101179  24.2863253  41.2752094
  71.5157877  24.3606265  40.5002204  71.3541296  24.6721200  41.8260456
  71.7703991  24.3545028  41.2419754  78.2442277  24.5925115  42.6964941
  77.9405414  24.0381104  43.2975348  77.5421698  24.7717325  42.2092975
  78.0958487  24.5369898  42.7134646  77.3008374  21.9025635  37.2609643
  77.5768108  21.1844548  36.8487210  77.9007043  22.5010555  37.0530749
  77.4301638  21.8846006  37.1690404  76.3060628  31.8074836  47.4037039
  76.1980983  31.8176898  48.2699097  76.5156409  32.6329617  47.2141992
  76.3210739  31.9315911  47.5041130  80.8018894  19.5739153  35.5356238
  81.2562641  19.7449713  36.2604082  81.2758940  18.9607263  35.1354013
  80.9387214  19.5090038  35.5829999  74.3234420  29.0587479  44.8658976
  73.7322353  29.6996977  44.8361991  75.0855443  29.4825096  44.8390276
  74.3482680  29.2163317  44.8574123  74.7195043  20.2189476  45.5326994
  75.1796524  20.2928406  46.2702118  74.7651149  21.0170730  45.1826815
  74.7945598  20.3483623  45.5899750  76.3678392  20.8856171  50.0999021
  75.9763957  20.2389518  50.5354799  76.5364255  21.4767606  50.7193276
  76.3349303  20.8770439  50.2561727  78.1431914  26.2781687  36.6401245
  78.8873959  26.6655963  36.8784195  78.2892611  25.4339112  36.8041733
  78.2742499  26.2112160  36.6995215  80.0611490  18.0731946  41.6733106
  79.2147535  18.2454754  41.5474456  80.0582622  17.2681290  42.0098935
  79.9358640  17.9792975  41.7044233  81.1309790  21.8507160  42.5395164
  80.6569744  21.3248922  43.0500475  81.5027926  21.3036633  41.9710026
  81.1159679  21.6923157  42.5310311  71.5082820  23.8478667  47.9078710
  72.3708433  23.7474376  47.8216040  71.1774603  23.2673376  47.3464282
  71.5868017  23.7470294  47.8124116  74.8684606  22.6721116  44.5689128
  74.2437676  22.6839508  43.9615081  74.5330201  23.1481291  45.2180368
  74.7270098  22.7439633  44.5745697  75.0526355  21.0146234  30.6261813
  74.7039159  21.6665960  31.0893363  74.5722801  21.0003348  29.8985684
  74.9296599  21.1089288  30.5872904  71.5810282  30.7321576  46.0092892
  71.0510206  30.0414015  46.0587867  71.8535375  30.7231761  45.1805601
  71.5435004  30.6288708  45.8940308  81.7816527  28.1744821  45.9831264
  81.1673521  27.6302871  46.2779899  82.2983812  27.6609057  45.5037080
  81.7672190  28.0181230  45.9555492  81.0212825  29.2449091  43.7175563
  80.5940433  28.6198809  43.2840998  81.0137769  28.9624013  44.5434570
  80.9571966  29.1101871  43.7755390  74.1375352  24.2814264  46.7863997
  74.2968838  23.5257588  47.1915719  73.9568245  24.8305203  47.4404734
  74.1340711  24.2508078  46.9426703  82.0795655  16.4475499  47.3414786
  81.5836216  16.6439174  46.6506353  82.8364717  16.8468168  47.1703588
  82.1182479  16.5353233  47.2134923  79.3498534  20.1217845  43.9318097
  79.3741021  19.5877958  43.2430877  79.6010008  19.6135154  44.5943687
  79.3908453  19.9678749  43.9282741  66.8606124  27.4049340  43.3661241
  66.7549573  27.3596185  42.5013325  66.1106344  27.7503121  43.6475526
  66.7341727  27.4490248  43.2798570  75.6299857  18.8488664  43.3123841
  75.6698228  19.3497870  44.0258548  74.8049521  18.9399057  43.0429764
  75.5139382  18.9370480  43.3774379  77.8129469  28.4149403  51.4144136
  76.9625100  28.5521118  51.5501780  77.9757597  27.6813182  51.8591837
  77.7113333  28.3263505  51.4999735  77.0514220  25.3649173  45.6097740
  76.2206150  25.5322991  45.4032988  76.9965737  24.9885124  46.3946625
  76.9203635  25.3338905  45.6946268  74.8598003  18.8558066  51.2454151
  75.4850707  18.3120199  51.5183583  74.4048483  18.3752984  50.6761941
  74.8846264  18.7047548  51.2015745  75.4250264  23.6404765  36.1387858
  75.5653225  24.1377229  36.8416499  75.9232797  22.9391059  36.2802071
  75.5191345  23.6106744  36.2639437  75.4550486  24.5071876  33.4680435
  76.0895566  25.1032301  33.4029896  75.5376097  24.2075334  34.2826305
  75.5607037  24.5512784  33.5783521  77.0329469  20.4385851  33.4425877
  77.3545310  19.9588934  32.7885139  77.2956413  21.2485497  33.2516688
  77.1195494  20.4875749  33.3181369  80.2626442  31.4604726  46.9624693
  79.7551533  32.0140573  47.4065323  79.9653088  31.5213016  46.1443467
  80.1431327  31.5511037  46.9073149  82.4288624  19.8258045  45.8049356
  82.8543696  19.3730572  45.1932882  81.8145617  19.2718116  46.0814143
  82.4017269  19.6772021  45.7554381  71.9603474  26.7039717  36.7369981
  72.4695703  27.3004224  37.1181286  72.4337746  26.4365690  36.0546400
  72.1046850  26.7525532  36.6924503  80.8682847  16.2973145  39.2139933
  80.2251165  16.1470791  39.7825071  80.5282254  16.0515490  38.4489037
  80.7227924  16.2385268  39.1842948  79.5068927  36.3929284  43.8681700
  79.2834581  35.6348113  44.2365726  79.0178770  36.4227305  43.1462139
  79.4012376  36.2851508  43.8158440  74.3194006  23.3395975  39.6043161
  73.6005995  23.7560108  39.8716025  74.6906368  23.9050214  39.0534799
  74.2685938  23.4845257  39.5625968  81.5639916  30.5611016  51.4193633
  81.5235771  29.9160693  50.8338789  82.3763235  30.5047633  51.7319045
  81.6783070  30.4569983  51.3790582  78.1547384  36.6129742  41.3218784
  77.7407783  35.9503872  40.9322626  78.8394758  36.7607601  40.8014478
  78.1945756  36.5370400  41.1875281  81.5212678  35.7719827  42.0742401
  81.1228961  35.8822098  41.3063221  80.9063898  35.9801894  42.6568961
  81.3711567  35.8193395  42.0473700  80.0940580  22.3793975  34.9416540
  79.5005419  22.7010972  34.3901107  80.1315858  21.5335071  34.7337647
  80.0114969  22.3018303  34.8299312  77.2517625  24.1907953  47.9743391
  76.7396528  23.5829136  48.3328422  77.0797121  24.9064545  48.4417367
  77.1507262  24.2071252  48.0959615  72.0983340  22.6345528  50.6245753
  71.9285930  23.2946903  50.0793959  71.6549290  22.8452089  51.3458242
  72.0082673  22.7631510  50.6507382  76.0243159  20.8750026  39.6672486
  76.5000525  21.2367106  39.0322667  75.5231759  21.5306493  39.9472629
  76.0208518  21.0244215  39.6149227  81.1286695  22.1132197  50.4145646
  81.6858126  21.8846007  49.7824112  80.8047760  22.8737863  50.1380859
  81.1633106  22.1916034  50.2802144  68.9985404  25.5392394  45.8834242
  68.4512124  24.8693039  46.0015111  69.7877783  25.1722241  45.9477710
  69.0337588  25.3857380  45.9102943  78.8469813  25.1999851  51.3797654
  79.5981140  25.5151527  51.6937208  79.0392389  24.9979022  50.5531575
  78.9861227  25.2167232  51.3041049  78.0669812  23.0191226  33.0345870
  78.4468777  23.0370855  32.2496985  77.3262408  23.4645215  32.9136718
  78.0138650  23.0873000  32.9009438  67.7572374  24.7513201  43.0380266
  67.5794135  24.2989810  43.7635181  67.4691396  25.5539363  43.2218743
  67.6885327  24.8035759  43.1723768  78.8654566  29.8568732  34.4254660
  78.0565889  29.5335406  34.3787970  79.3729475  29.1501954  34.3582909
  78.8204233  29.7050048  34.4084955  69.4944844  27.2840925  40.1502025
  68.6290363  27.2726616  40.0384796  69.5943660  27.0971148  40.9973164
  69.3819011  27.2546986  40.2590969  75.1201854  37.0538824  43.7232130
  75.4348413  37.8675212  43.7309912  75.5295267  36.6689042  44.3914289
  75.2269952  37.1167526  43.8236222  82.0726373  32.4708870  41.2935942
  82.5437551  33.1849133  41.4625927  82.4086552  31.8707621  41.8295812
  82.1921488  32.4880335  41.3968318  78.9895868  17.2436341  48.2494037
  79.1223774  16.4467334  48.5775012  79.3741021  17.7702744  48.8292313
  79.0652197  17.2036258  48.3837540  82.0628223  14.1666667  44.8475130
  81.2574187  14.0564397  45.1642968  81.9334959  14.2679123  43.9904996
  81.9248356  14.1650337  44.7683171  78.0588983  19.2452754  35.7173502
  78.8804677  19.4151067  35.4755197  77.5958634  19.4000015  34.9939799
  78.1120145  19.2934487  35.5745146  76.6484315  17.2395516  46.4971931
  77.1928728  16.8986643  47.0876272  76.7021251  18.0980978  46.6393215
  76.7373434  17.3150775  46.6053804  72.4614874  31.0011932  43.3710739
  73.0659731  30.9607766  42.7424559  72.2542186  31.8483084  43.4014794
  72.5203771  31.1199935  43.2826855  81.1062921  45.5819777  39.9621120
  80.8713106  44.7487429  39.8553389  81.2448562  45.8624442  39.1482321
  81.0918584  45.5003280  39.8263475  80.8765067  43.8069141  45.3530942
  80.6103482  42.9908258  45.5121932  80.8903631  43.8522297  44.4826457
  80.8389789  43.6926046  45.2484424  81.2858480  44.5927921  42.6342686
  81.1034054  44.5674807  41.7814978  82.0208149  45.0626859  42.6731595
  81.3672544  44.6589283  42.5140604  81.2529391  41.4721421  42.7841752
  81.8302893  41.3357872  43.4233998  80.5543452  41.0157206  43.0387337
  81.2350412  41.3843688  42.9164042  76.7288224  40.3233314  39.4989571
  76.8148476  39.9465183  40.2803101  77.3564021  39.9493760  39.0209529
  76.8344775  40.2118796  39.5435048  82.3164183  49.0925047  43.5520932
  82.3568328  49.3639898  42.7240711  82.8758707  49.6166955  43.9678719
  82.4047528  49.2100802  43.4912820  81.4850339  37.9975409  37.6272455
  81.5866476  38.8001570  37.9553430  82.2806226  37.7962745  37.3295536
  81.6178245  38.0861308  37.6307810  82.3014071  38.1122587  45.3693577
  82.1599563  37.2606528  45.4938085  82.5854635  38.1551248  44.5455783
  82.3221917  37.9922337  45.2661201  81.7627394  40.6168619  38.8151849
  82.1426359  41.0353164  38.1512116  81.1882759  41.1982075  39.1220692
  81.7338719  40.7646478  38.7628590  82.8833762  39.8048561  41.2752094
  82.4890460  39.8791573  40.5002204  82.3273879  40.1906507  41.8260456
  82.7436575  39.8730336  41.2419754  82.5542865  46.2506884  46.0092892
  82.0242790  45.5599323  46.0587867  82.8267959  46.2417069  45.1805601
  82.5167588  46.1474016  45.8940308  77.8338708  42.9234648  43.3661241
  77.7282157  42.8781493  42.5013325  77.0838928  43.2688429  43.6475526
  77.7074311  42.9675556  43.2798570  79.9717988  41.0577701  45.8834242
  79.4244707  40.3878347  46.0015111  80.7610366  40.6907549  45.9477710
  80.0070172  40.9042688  45.9102943  78.7304957  40.2698509  43.0380266
  78.5526719  39.8175118  43.7635181  78.4423980  41.0724671  43.2218743
  78.6617911  40.3221067  43.1723768  80.4677427  42.8026233  40.1502025
  79.6022947  42.7911923  40.0384796  80.5676243  42.6156456  40.9973164
  80.3551594  42.7732294  40.2590969  78.6698740  45.5031858  43.2409662
  78.5723018  44.6928129  43.5499718  79.4527609  45.4823651  42.8555930
  78.7714876  45.3798948  43.2296525  75.0531361  10.9673921  25.0046061
  74.3014261  10.5889459  24.7762106  75.5017373  10.9992355  24.2564871
  75.0081028  10.9159528  24.8603563  80.0460612  13.3413559  26.3742720
  80.4299992  13.9100458  25.8347495  79.9819754  12.6163070  25.8948536
  80.0934040  13.3189023  26.2236582  76.4716857  15.8969902  28.6723690
  77.1154312  16.3383067  29.0619848  76.7973112  15.0923329  28.5853948
  76.6148686  15.8435097  28.7169167  71.3898486  11.8798271  28.1717373
  70.9066065  12.6048760  28.1476957  72.2021805  12.1774401  28.2827531
  71.4389234  12.0300624  28.1844653  74.2442684  12.3954447  28.3237653
  74.9463263  11.8806436  28.3810410  74.1640167  12.7228598  29.1284528
  74.3366444  12.3668673  28.4510445  81.3866685  12.4644387  33.0493600
  80.5881931  12.2243887  33.3067469  81.8352696  12.5158779  33.7960648
  81.3341296  12.4366778  33.1978524  71.0382423  10.5117871  30.4860978
  71.0786568  10.7832722  29.6580758  71.5976947  11.0359779  30.9018766
  71.1265769  10.6293626  30.4252867  72.4897009   9.0959820  25.3114904
  71.6635127   9.3421557  25.1849183  72.5509000   9.0171900  26.1776962
  72.3771176   9.1204769  25.4203849  77.2695838  11.7136700  23.0133934
  77.5594137  11.3225681  22.2893161  77.9999319  11.8953405  23.4539210
  77.4202722  11.6830514  22.9716741  75.2101754  13.6904082  26.0794084
  74.9902049  13.4001437  26.8720751  74.9896276  13.0319037  25.5511996
  75.1449348  13.5503791  26.1182993  77.3769710  15.0633472  24.8624776
  78.0293768  14.5309914  25.0915802  76.6795318  14.7102124  25.2492650
  77.3700427  14.9322995  24.9536944  76.2095686  12.2941991  32.7262122
  76.3585250  11.7344907  32.0735526  76.9895688  12.3733993  33.1094640
  76.3469780  12.2227557  32.6859071  78.7348987  12.4656634  34.0046612
  78.6592658  11.7965445  34.5597401  78.6638846  13.1674422  34.5187279
  78.7129594  12.4701541  34.1623461  78.1240621  15.8724954  32.4624613
  78.6136552  15.1735743  32.2800278  77.5524854  15.5748824  33.0500671
  78.1125151  15.7251177  32.5225654  79.2019751  13.3307415  30.8021746
  78.9785405  12.5726244  31.1705773  78.7129594  13.3605436  30.0802186
  79.0963200  13.2229640  30.7498487  77.8498208  13.5507873  28.2558831
  77.4358607  12.8882003  27.8662673  78.5345582  13.6985732  27.7354525
  77.8896580  13.4748531  28.1215328  81.2163502  12.7097958  29.0082448
  80.8179785  12.8200229  28.2403268  80.6014722  12.9180025  29.5909007
  81.0662391  12.7571526  28.9813747  74.8152678  13.9916955  30.6572177
  75.1299237  14.8053343  30.6649959  75.2246091  13.6067174  31.3254336
  74.9220776  14.0545657  30.7576269  80.8013745  22.5197908  26.8961167
  80.5663930  21.6865560  26.7893436  80.9399386  22.8002573  26.0822368
  80.7869408  22.4381411  26.7603522  80.5715891  20.7447272  32.2870988
  80.3054306  19.9286389  32.4461979  80.5854455  20.7900428  31.4166504
  80.5340613  20.6304177  32.1824470  80.9809304  21.5306052  29.5682733
  80.7984878  21.5052938  28.7155025  81.7158973  22.0004990  29.6071641
  81.0623368  21.5967414  29.4480651  80.9480215  18.4099553  29.7181799
  81.5253717  18.2736003  30.3574045  80.2494276  17.9535337  29.9727384
  80.9301236  18.3221819  29.8504089  76.4239048  17.2611445  26.4329618
  76.5099300  16.8843314  27.2143148  77.0514845  16.8871891  25.9549576
  76.5295599  17.1496928  26.4775095  82.0115007  26.0303179  30.4860978
  82.0519152  26.3018030  29.6580758  82.5709531  26.5545087  30.9018766
  82.0998352  26.1478934  30.4252867  81.1801163  14.9353540  24.5612502
  81.2817300  15.7379702  24.8893477  81.9757050  14.7340876  24.2635582
  81.3129069  15.0239439  24.5647857  81.9964895  15.0500718  32.3033623
  81.8550387  14.1984659  32.4278131  82.2805459  15.0929379  31.4795829
  82.0172741  14.9300468  32.2001248  82.7655201  12.9631066  35.6211074
  82.2297390  12.3511424  35.9371841  82.8272965  13.5379202  36.2744740
  82.6950833  12.9577994  35.7646501  81.4578218  17.5546751  25.7491896
  81.8377183  17.9731296  25.0852163  80.8833583  18.1360206  26.0560739
  81.4289543  17.7024609  25.6968637  82.5784586  16.7426692  28.2092141
  82.1841284  16.8169704  27.4342250  82.0224703  17.1284639  28.7600502
  82.4387399  16.8108467  28.1759801  82.2493689  23.1885015  32.9432939
  81.7193614  22.4977454  32.9927914  82.5218783  23.1795201  32.1145648
  82.2118412  23.0852147  32.8280355  77.5289532  19.8612779  30.3001288
  77.4232981  19.8159624  29.4353372  76.7789752  20.2066560  30.5815572
  77.4025135  19.9053687  30.2138617  82.7666747  15.0908967  37.5585799
  82.5969338  15.7510342  37.0134006  82.3232697  15.3015528  38.2798289
  82.6766081  15.2194949  37.5847429  79.6668812  17.9955833  32.8174289
  79.1195531  17.3256478  32.9355158  80.4561190  17.6285681  32.8817757
  79.7020996  17.8420819  32.8442990  78.4255781  17.2076640  29.9720312
  78.2477542  16.7553249  30.6975228  78.1374803  18.0102802  30.1558790
  78.3568735  17.2599198  30.1063815  80.1628251  19.7404364  27.0842071
  79.2973771  19.7290055  26.9724843  80.2627067  19.5534587  27.9313211
  80.0502418  19.7110425  27.1931016  78.3649564  22.4409989  30.1749708
  78.2673842  21.6306260  30.4839765  79.1478433  22.4201782  29.7895977
  78.4665700  22.3177079  30.1636571   5.2990474  41.2912189  72.4236781
   4.9641842  41.9689111  71.9881004   5.8117344  40.9017501  71.8353653
   5.3256055  41.3336768  72.2723573  10.0841264  34.8200753  74.7479382
   9.9680790  35.5708439  75.1771520  10.8797150  34.5624706  74.9975469
  10.1845853  34.8935600  74.8483474   7.8070569  35.5508397  73.0593672
   7.7221864  36.4069364  73.2043241   8.2954952  35.2752721  73.7275831
   7.8659466  35.6365719  73.1795753   5.4722524  38.4289902  71.2689728
   5.8873673  38.0974926  70.5774224   4.6414454  38.1958804  71.1409865
   5.4110533  38.3461158  71.1480575   8.1655915  34.6800461  70.4550929
   8.0836077  34.7502648  71.3205916   8.8035635  35.2430205  70.2634670
   8.2475752  34.7739432  70.5540879   5.2696025  34.7020915  73.4659536
   6.0836664  34.9935808  73.3542307   5.2055166  34.0480778  72.8917829
   5.3798764  34.6486110  73.3648373   2.0629991  41.6149599  75.0039107
   2.3528289  41.2238580  74.2798334   2.7933472  41.7966303  75.4444383
   2.2136875  41.5843412  74.9621915  10.1643780  37.2850785  76.1960929
  10.7301813  37.9443995  76.1119472   9.5171684  37.6300483  76.6677331
  10.1522537  37.4332726  76.2533685   6.6350358  40.2289569  75.6198008
   6.3937034  39.4957430  75.2125073   6.8151691  40.7776426  74.9664341
   6.6257982  40.2011960  75.4628231  11.3606478  37.3357013  72.9886565
  10.9813287  36.5494151  72.9815855  10.6972724  37.8843870  72.8458210
  11.2064953  37.3001837  72.9667362   6.7072047  37.9182715  68.8075341
   7.4745032  37.9782840  68.3981193   6.2603356  37.3463157  68.3231659
   6.7545474  37.8419291  68.6753051   9.6066577  39.5802504  73.3238251
   9.6886414  40.3869490  72.9999702  10.0916319  39.5998463  74.0479025
   9.6903735  39.7023166  73.3825150   3.4111120  39.5214626  73.5769693
   3.4803940  38.6629165  73.7162693   4.1899575  39.7386507  73.2488718
   3.5363970  39.4267490  73.5486850   7.8018607  41.9452327  77.7906186
   7.4098399  41.6419043  77.0729052   7.9571679  42.7821417  77.6011140
   7.7672197  42.0236164  77.6562683   2.7546647  34.1901482  70.2712451
   3.0439172  34.9666364  70.5456025   2.8418446  33.6790213  70.9726951
   2.8100904  34.2293400  70.4154949   7.1015349  38.1538308  73.6575795
   7.8249548  38.6196421  73.5140368   6.6615940  38.2211918  72.9073392
   7.1431041  38.2322145  73.5260576   7.3619199  42.2159013  73.8173856
   6.6448508  42.0419876  73.3521093   8.0125936  41.9811586  73.2849342
   7.3521049  42.1554806  73.6703074  13.7439497  37.1862824  74.3830711
  14.1273103  37.9354180  74.6128808  12.9483611  37.4328644  74.1242700
  13.6833279  37.3332518  74.3788285   3.3539543  36.6959762  73.3499880
   2.5450866  36.3726435  73.3033190   3.8614452  35.9892984  73.2828129
   3.3089210  36.5441078  73.3330175  23.2357273  47.7633759  76.4761072
  23.2051277  48.6178396  76.6479342  23.8338621  47.4629052  77.0347216
  23.3194431  47.8450256  76.5835875  16.4356958  46.8509410  81.2314003
  15.5794853  47.0117908  81.2823120  16.4824611  45.9801474  81.2519064
  16.3156069  46.7460212  81.2420069  16.2723057  56.8097497  72.4236781
  15.9374426  57.4874419  71.9881004  16.7849928  56.4202809  71.8353653
  16.2988638  56.8522076  72.2723573  19.2808779  48.9101454  83.8745654
  19.8264739  49.5886541  83.9339624  19.2225655  48.7688915  83.0147236
  19.3524693  48.9893456  83.7557715  21.0573847  50.3386061  74.7479382
  20.9413373  51.0893747  75.1771520  21.8529734  50.0810014  74.9975469
  21.1578437  50.4120908  74.8483474  12.9404173  54.3280084  76.0348725
  13.2620014  54.8685291  75.4310033  13.5876269  53.7576855  76.1671014
  13.0830228  54.3239259  75.9655760  14.9905881  46.3296079  76.1183111
  15.6886045  46.5084207  76.6104575  15.3058213  45.8066418  75.4953501
  15.1401218  46.2789851  76.0985121  15.1793816  52.7166524  76.1062903
  15.6187452  52.1083625  76.5517676  15.0298479  52.3373897  75.3348368
  15.2215282  52.5704995  76.0582070  18.7803153  51.0693705  73.0593672
  18.6954448  51.9254672  73.2043241  19.2687536  50.7938029  73.7275831
  18.8392050  51.1551027  73.1795753  20.3709152  37.6873999  78.4453997
  20.0562593  38.3777477  78.8774419  19.8536094  37.6318781  77.7439497
  20.2473623  37.7808887  78.4050946  19.7121586  47.6878499  74.5591407
  19.1833057  47.9038133  75.2188713  20.2346606  48.3814638  74.4792376
  19.7110039  47.8221636  74.6447006  25.1669639  53.2624804  79.9324452
  24.3367342  53.4735448  80.0957868  25.1178891  52.4361858  79.6566735
  25.0376374  53.1714410  79.9161817  11.6021194  51.5841716  73.3598875
  11.0178409  52.0891748  73.7664739  11.1991289  51.3584103  72.6195467
  11.4560498  51.6249965  73.3103900  16.0598408  47.8307368  71.8367796
  16.2994412  48.0385352  71.0243139  16.3814249  47.0264877  71.9456740
  16.1435566  47.7421470  71.7328349  11.3688698  39.7600764  75.6827334
  12.1234666  40.1279081  75.4444384  11.1916233  40.1340318  76.4506513
  11.4543177  39.8698952  75.7612222  24.6623597  45.9095205  83.7274873
  23.8252018  45.9797392  83.9622467  24.6311828  45.9119699  82.8549175
  24.5341880  45.9205432  83.6334421   9.7245763  42.1671083  72.3805447
   9.5421336  42.3842964  71.5546439  10.5871376  42.2810096  72.4364061
   9.8250353  42.2160981  72.2659934  15.4045482  39.1697494  75.4154470
  16.1331643  38.9913449  74.9692627  15.4940375  40.0115574  75.6261649
  15.5252144  39.2681372  75.3807988  19.3853783  50.1050881  79.3186764
  20.1411298  50.5382395  79.3575673  19.4916107  49.4555651  79.8921400
  19.5123954  50.0728365  79.4084790  22.4233954  53.9324158  80.0689167
  21.9869186  53.9360901  80.8248139  22.0896870  54.6129657  79.6368745
  22.3096574  54.0336614  80.1170000  22.3431437  40.9737986  82.3118595
  22.9857345  41.0436091  82.8980511  22.5954458  40.3067209  81.8098137
  22.4753569  40.8864335  82.3245875   9.2707790  45.4445256  70.8927920
   8.5565967  45.1583435  71.3050352   9.7551759  45.7841882  71.5334307
   9.2367153  45.4526905  71.0483555  25.5578300  50.6505078  78.9608805
  26.2194734  50.0895747  78.8604713  24.9169712  50.1557109  79.2861496
  25.5607168  50.4941487  78.9941145  16.4455108  53.9475210  71.2689728
  16.8606257  53.6160233  70.5774224  15.6147038  53.7144112  71.1409865
  16.3843117  53.8646466  71.1480575  21.8443131  51.6670461  78.7020793
  22.0798720  51.8115660  77.8747644  21.9932695  52.4312869  79.0952307
  21.9008934  51.8009515  78.6384397  23.6733588  50.5072127  76.5390397
  24.0041805  51.0399767  75.9330492  24.2466676  50.5611014  77.1952348
  23.8067267  50.5941695  76.5468179  18.8865477  48.3537029  77.2213977
  18.9812331  49.0926323  77.6753603  18.2624320  47.9254505  77.6548542
  18.8074507  48.3998350  77.3522125  19.1388498  50.1985769  70.4550929
  19.0568661  50.2687956  71.3205916  19.7768219  50.7615513  70.2634670
  19.2208336  50.2924740  70.5540879  12.4981669  49.9646507  79.9225456
  12.2400914  49.1318242  79.8956755  12.5530152  50.1904120  79.0817956
  12.4681447  49.8744278  79.7945592  17.5782719  42.0674958  80.0229548
  16.8739046  41.5784143  80.1813467  17.6267694  42.0797432  79.1517993
  17.4812771  41.9964606  79.9168888  24.7812939  45.7482623  78.0430559
  24.5249504  44.9362565  77.8528442  25.6242253  45.7560191  77.8160746
  24.8678965  45.6294621  77.9815376  16.2428608  50.2206223  73.4659536
  17.0569247  50.5121116  73.3542307  16.1787750  49.5666086  72.8917829
  16.3531347  50.1671418  73.3648373  12.7539332  48.9130031  72.9306737
  13.1384484  48.6937737  73.6823282  12.5050952  49.7392976  73.0607814
  12.7741404  49.0028177  73.0607814  23.4874519  52.6876668  83.9417406
  23.1820336  53.4204725  84.3030722  22.7680735  52.2814598  83.6610192
  23.3361861  52.7358401  83.9530543  29.1876311  49.3269669  83.2685750
  29.1200812  49.3465628  82.3988337  29.1731974  50.1699996  83.4941421
  29.1755068  49.4543404  83.1738227  10.4739769  40.5826967  78.2615518
   9.6062194  40.6549567  78.3273127  10.7614973  41.3849046  78.4503493
  10.3879517  40.7121114  78.2990284  13.0362574  57.1334906  75.0039107
  13.3260873  56.7423888  74.2798334  13.7666055  57.3151611  75.4444383
  13.1869458  57.1028720  74.9621915  26.9734929  48.1014055  81.5432345
  27.5242850  47.4682124  81.7829437  26.9579044  48.6329448  82.2347849
  27.0520125  48.0863003  81.6811203  20.6763335  46.3410389  80.6536941
  20.3328101  45.6200724  81.0044190  20.7756377  46.1324240  79.8115299
  20.6405378  46.2034592  80.5808621  21.1376364  52.8036093  76.1960929
  21.7034397  53.4629303  76.1119472  20.4904267  53.1485791  76.6677331
  21.1255120  52.9518034  76.2533685   8.4007121  44.0585227  75.7032394
   8.1131917  43.6886497  74.9664341   9.0877589  44.5280082  75.4416099
   8.4596018  44.0732196  75.5547470  17.6082942  55.7474877  75.6198008
  17.3669618  55.0142738  75.2125073  17.7884275  56.2961734  74.9664341
  17.5990566  55.7197268  75.4628231  12.8382263  51.0383437  77.0318930
  12.6425045  51.6458171  76.4379233  13.0616608  50.3451381  76.5510604
  12.8416904  51.0260962  76.8735011  11.2360793  47.9238175  77.1499799
  11.9583445  48.0879333  76.6903605  10.7568785  48.6447840  77.0439138
  11.2724523  48.0536404  77.0665413  19.1954300  44.2601974  82.5296484
  18.3565401  44.2863252  82.2934747  19.2658668  44.9072709  83.1101830
  19.0822694  44.3598099  82.5805601  17.6423579  41.1587351  77.2624100
  18.3449931  40.9595099  76.7844058  17.3767767  40.3863293  77.5692943
  17.7070211  41.0150317  77.2369541  23.0711824  49.4669960  79.8157725
  22.9845799  49.6225386  80.6692504  22.6162304  50.1108036  79.4417130
  22.9915081  49.5845715  79.8864832   5.9735316  44.8366439  76.5517675
   6.0751452  45.6392600  76.8798651   6.7691202  44.6353775  76.2540756
   6.1063221  44.9252338  76.5553030  16.9437640  46.7880707  78.4383285
  16.6972354  46.7076458  79.2720074  17.2722763  46.0034175  78.2445812
  16.9558884  46.6606973  78.5330808  20.8385689  53.4964067  82.2270066
  20.7000048  54.1945113  82.7318809  20.0585687  53.3412723  81.8706248
  20.7028916  53.5764233  82.2496340  22.3339062  52.8542321  72.9886565
  21.9545871  52.0679458  72.9815855  21.6705307  53.4029178  72.8458210
  22.1797537  52.8187145  72.9667362  15.1585970  56.4055840  76.8275392
  15.9235861  56.1365483  76.5058056  15.0564060  55.9205850  77.5445454
  15.2567465  56.2945404  76.8855219  17.6804631  53.4368023  68.8075341
  18.4477616  53.4968148  68.3981193  17.2335939  52.8648465  68.3231659
  17.7278058  53.3604599  68.6753051  18.5782426  52.2422679  81.0928073
  17.9027428  52.0107911  81.5941460  18.5874802  51.6343862  80.4670178
  18.4800931  52.1181604  81.0744226  20.5799161  55.0987812  73.3238251
  20.6618998  55.9054798  72.9999702  21.0648903  55.1183771  74.0479025
  20.6636318  55.2208474  73.3825150  14.3895664  49.7772647  81.9908329
  13.9657913  49.9777147  81.2547348  14.2140519  48.9301495  82.1032629
  14.3006545  49.6821429  81.8982019   9.6778109  50.2724699  77.4236302
   9.8342728  50.2071502  78.2792294  10.0178702  51.0473251  77.2114981
   9.7511344  50.3773897  77.5190896  16.2157253  49.6482583  76.2929665
  16.7572799  49.1452964  76.7568285  16.5303813  49.5947777  75.4819150
  16.3421651  49.5662003  76.2413477  14.3843703  55.0399934  73.5769693
  14.4536523  54.1814473  73.7162693  15.1632158  55.2571815  73.2488718
  14.5096553  54.9452798  73.5486850  18.7751191  57.4637635  77.7906186
  18.3830983  57.1604350  77.0729052  18.9304263  58.3006725  77.6011140
  18.7404781  57.5421472  77.6562683  18.9390866  54.0287624  77.7312217
  18.5805520  54.2002267  78.5076249  18.4529576  54.4900830  77.1740215
  18.8149562  54.1226595  77.7637486  13.7279231  49.7086790  70.2712451
  14.0171756  50.4851672  70.5456025  13.8151030  49.1975521  70.9726951
  13.7833487  49.7478708  70.4154949  21.8252605  46.7680666  83.2445333
  21.3980213  46.6807015  82.4893433  21.1878658  46.8758442  83.8300177
  21.6682212  46.7713326  83.2190775  19.0083686  39.6220885  79.8801193
  19.2133279  39.5543193  80.7258190  18.6810110  40.4279706  79.8122370
  18.9898934  39.7306826  79.9960848  13.7059837  46.9501453  81.6210161
  13.4022974  46.3957442  82.2220568  13.0039258  47.1293663  81.1338195
  13.5576047  46.8946236  81.6379866  12.7625934  44.2601973  76.1854863
  13.0385668  43.5420886  75.7732430  13.3624603  44.8586893  75.9775969
  12.8919198  44.2422344  76.0935624  22.2617373  40.1752649  79.3603958
  21.6491687  40.6623052  79.7457690  22.3581548  39.4996140  79.9041609
  22.1855271  40.1470958  79.4982817  16.2636454  41.9315491  74.4601458
  16.7180201  42.1026051  75.1849302  16.7376500  41.3183601  74.0599233
  16.4004775  41.8666376  74.5075219  25.9042401  51.2469586  84.7881474
  25.9625525  51.6956235  85.5341451  25.2708869  51.6568399  84.3511554
  25.8193696  51.3743321  84.8334023  13.6049474  48.6358025  75.5646465
  14.3491519  49.0232301  75.8029415  13.7510171  47.7915450  75.7286953
  13.7360059  48.5688498  75.6240435  16.5927350  44.2083498  81.4640384
  16.1187304  43.6825260  81.9745695  16.9645486  43.6612971  80.8955246
  16.5777239  44.0499495  81.4555531  22.8564081  49.2685874  82.8747165
  22.6162304  48.4292289  82.8789591  23.3356088  49.3486041  83.5987938
  22.8916264  49.1567274  82.9821967  18.5210850  45.1020053  74.5266138
  17.9933868  45.1848797  73.8371847  18.9806558  45.8437924  74.5230783
  18.5112700  45.2240715  74.4240833  24.8569268  46.0487331  80.8276424
  24.6179038  46.0083165  79.9897208  25.0203169  46.8958483  80.9542145
  24.8459571  46.1679416  80.7229906  21.4615298  50.4337280  86.7581469
  22.1849497  49.9809807  86.5792489  21.1965260  50.7141946  85.9753797
  21.5296571  50.4088249  86.6160184  10.5143915  43.3722572  69.5507033
  10.1656719  44.0242298  70.0138583  10.0340361  43.3579685  68.8230904
  10.3914159  43.4665626  69.5118124  18.0747932  53.6723616  73.6575795
  18.7982131  54.1381729  73.5140368  17.6348523  53.7397226  72.9073392
  18.1163625  53.7507453  73.5260576  10.8867824  45.9981103  75.0633078
  11.0270785  46.4953567  75.7661719  11.3850357  45.2967397  75.2047291
  10.9808905  45.9683082  75.1884657  10.9168046  46.8648214  72.3925655
  11.5513126  47.4608639  72.3275116  10.9993657  46.5651671  73.2071525
  11.0224597  46.9089122  72.5028741  23.8950612  49.3963691  85.2612019
  24.4868452  50.0360942  85.2930217  24.3309606  48.6986728  85.5504086
  24.0469043  49.3882042  85.3092851  12.4947029  42.7962189  72.3671097
  12.8162870  42.3165272  71.7130359  12.7573973  43.6061835  72.1761908
  12.5813054  42.8452087  72.2426589   7.4221034  49.0616055  75.6615201
   7.9313263  49.6580562  76.0426506   7.8955306  48.7942028  74.9791620
   7.5664410  49.1101870  75.6169723  18.3351782  57.7344321  73.8173856
  17.6181092  57.5605183  73.3521093  18.9858520  57.4996894  73.2849342
  18.3253633  57.6740114  73.6703074  16.3300407  38.6549483  78.1385153
  15.6868725  38.5047129  78.7070291  15.9899814  38.4091828  77.3734257
  16.1845484  38.5961605  78.1088168  20.9199753  46.6108910  77.5615161
  20.2490943  47.1538612  77.4328227  21.6139504  47.0803765  77.3196856
  20.9228621  46.7607181  77.5070689  21.0827881  43.0664793  80.4705534
  21.4355491  42.6394516  81.1451333  20.2242682  42.9815637  80.6006611
  21.0077325  42.9909534  80.5900545   9.7811566  45.6972313  78.5288381
   9.0623555  46.1136446  78.7961245  10.1523928  46.2626552  77.9780019
   9.7303498  45.8421595  78.4871188  19.0811147  46.3300162  84.4190377
  19.0609074  46.1483457  85.2725156  19.1290347  47.2012181  84.3949960
  19.0845788  46.4316700  84.5413671  15.5558140  44.7370313  73.8661760
  14.9622979  45.0587309  73.3146327  15.5933418  43.8911408  73.6582867
  15.4732529  44.6594641  73.7544532  22.5151941  38.1883205  81.3989847
  22.0082806  37.4812345  81.3311024  23.3119375  37.8576394  81.5290924
  22.5579180  38.0356357  81.4088842  18.4315957  44.6949817  77.2963511
  18.2029650  44.7182519  76.4541869  18.6914033  43.8707285  77.4158521
  18.4362145  44.5765897  77.1888708  11.4860719  43.2326364  78.5917706
  11.9618085  43.5943444  77.9567887  10.9849319  43.8882831  78.8717849
  11.4826078  43.3820553  78.5394447  24.7172081  52.7048132  74.3830711
  25.1005687  53.4539488  74.6128808  23.9216194  52.9513952  74.1242700
  24.6565863  52.8517826  74.3788285  13.5287372  45.3767564  71.9591090
  13.9086337  45.3947193  71.1742205  12.7879968  45.8221552  71.8381938
  13.4756210  45.4449338  71.8254659  21.1572663  43.6849755  77.5466669
  21.1566889  43.5298411  78.4050945  20.9528843  44.5312742  77.4908055
  21.1272441  43.7870376  77.6654608  18.8813515  48.3647257  81.2002876
  19.3767180  47.6470252  81.1606896  18.0713291  48.0618054  81.0857363
  18.8357408  48.2144903  81.1776602  14.3272126  52.2145070  73.3499880
  13.5183449  51.8911743  73.3033190  14.8347035  51.5078292  73.2828129
  14.2821793  52.0626386  73.3330175  20.9465334  51.1150944  83.8880005
  21.3720405  50.5925366  83.3350430  20.5822254  51.7131782  83.3668628
  20.9551936  51.1261171  83.7289014  17.5343933  54.8285208  80.2181162
  18.0055111  55.5425471  80.3871147  17.8704112  54.2283959  80.7541032
  17.6539048  54.8456673  80.3213538  20.9811744  42.6888497  84.3660047
  20.3974733  43.1897703  83.9537614  21.3016038  42.1818053  83.7324370
  20.9424919  42.6880332  84.2118554  13.5206543  41.6029092  74.6418722
  14.3422237  41.7727405  74.4000417  13.0576194  41.7576353  73.9185019
  13.5737705  41.6510825  74.4990366  34.2089856  63.2819067  76.4761072
  34.1783861  64.1363704  76.6479342  34.8071205  62.9814360  77.0347216
  34.2927014  63.3635563  76.5835875  27.4089541  62.3694718  81.2314003
  26.5527437  62.5303216  81.2823120  27.4557195  61.4986782  81.2519064
  27.2888653  62.2645520  81.2420069  27.2455641  72.3282805  72.4236781
  26.9107009  73.0059727  71.9881004  27.7582511  71.9388117  71.8353653
  27.2721222  72.3707384  72.2723573  32.0306431  65.8571369  74.7479382
  31.9145957  66.6079055  75.1771520  32.8262317  65.5995322  74.9975469
  32.1311020  65.9306216  74.8483474  23.9136756  69.8465392  76.0348725
  24.2352597  70.3870599  75.4310033  24.5608853  69.2762163  76.1671014
  24.0562811  69.8424567  75.9655760  25.9638464  61.8481387  76.1183111
  26.6618629  62.0269514  76.6104575  26.2790797  61.3251726  75.4953501
  26.1133802  61.7975159  76.0985121  26.1526400  68.2351832  76.1062903
  26.5920035  67.6268932  76.5517676  26.0031063  67.8559205  75.3348368
  26.1947865  68.0890303  76.0582070  24.1365328  57.2173784  80.2004386
  23.8068658  57.6684927  79.5308085  23.4610330  57.1389947  80.7477392
  23.9875764  57.2724919  80.1827609  29.7535736  66.5879013  73.0593672
  29.6687031  67.4439980  73.2043241  30.2420120  66.3123337  73.7275831
  29.8124634  66.6736335  73.1795753  31.3441736  53.2059306  78.4453997
  31.0295177  53.8962785  78.8774419  30.8268677  53.1504089  77.7439497
  31.2206206  53.2994195  78.4050946  30.6854170  63.2063807  74.5591407
  30.1565641  63.4223441  75.2188713  31.2079189  63.8999946  74.4792376
  30.6842622  63.3406944  74.6447006  22.5753777  67.1027024  73.3598875
  21.9910993  67.6077056  73.7664739  22.1723873  66.8769411  72.6195467
  22.4293081  67.1435272  73.3103900  27.0330992  63.3492676  71.8367796
  27.2726995  63.5570660  71.0243139  27.3546833  62.5450185  71.9456740
  27.1168150  63.2606777  71.7328349  22.3421282  55.2786072  75.6827334
  23.0967250  55.6464389  75.4444384  22.1648817  55.6525626  76.4506513
  22.4275760  55.3884260  75.7612222  20.6978347  57.6856391  72.3805447
  20.5153920  57.9028272  71.5546439  21.5603960  57.7995404  72.4364061
  20.7982936  57.7346289  72.2659934  26.3778066  54.6882802  75.4154470
  27.1064226  54.5098757  74.9692627  26.4672959  55.5300881  75.6261649
  26.4984728  54.7866680  75.3807988  30.3586367  65.6236189  79.3186764
  31.1143882  66.0567703  79.3575673  30.4648691  64.9740959  79.8921400
  30.4856537  65.5913673  79.4084790  33.3164021  56.4923294  82.3118595
  33.9589929  56.5621399  82.8980511  33.5687041  55.8252517  81.8098137
  33.4486153  56.4049643  82.3245875  20.2440374  60.9630564  70.8927920
  19.5298551  60.6768743  71.3050352  20.7284342  61.3027189  71.5334307
  20.2099737  60.9712213  71.0483555  36.5310884  66.1690386  78.9608805
  37.1927318  65.6081055  78.8604713  35.8902296  65.6742417  79.2861496
  36.5339751  66.0126795  78.9941145  27.4187692  69.4660518  71.2689728
  27.8338840  69.1345541  70.5774224  26.5879621  69.2329420  71.1409865
  27.3575700  69.3831774  71.1480575  32.8175715  67.1855769  78.7020793
  33.0531304  67.3300967  77.8747644  32.9665278  67.9498177  79.0952307
  32.8741518  67.3194823  78.6384397  34.6466171  66.0257434  76.5390397
  34.9774388  66.5585075  75.9330492  35.2199259  66.0796322  77.1952348
  34.7799850  66.1127003  76.5468179  29.8598060  63.8722337  77.2213977
  29.9544915  64.6111631  77.6753603  29.2356904  63.4439813  77.6548542
  29.7807091  63.9183658  77.3522125  30.1121082  65.7171077  70.4550929
  30.0301244  65.7873264  71.3205916  30.7500802  66.2800821  70.2634670
  30.1940919  65.8110048  70.5540879  23.4714253  65.4831815  79.9225456
  23.2133497  64.6503550  79.8956755  23.5262736  65.7089428  79.0817956
  23.4414031  65.3929586  79.7945592  28.5515303  57.5860266  80.0229548
  27.8471630  57.0969451  80.1813467  28.6000277  57.5982740  79.1517993
  28.4545355  57.5149914  79.9168888  35.7545523  61.2667931  78.0430559
  35.4982088  60.4547873  77.8528442  36.5974837  61.2745499  77.8160746
  35.8411548  61.1479929  77.9815376  29.9348615  55.2067555  82.7806713
  30.3159127  54.5245727  83.1674587  29.1311900  54.9177158  82.5982377
  29.8725077  55.0634604  82.8110769  27.2161192  65.7391531  73.4659536
  28.0301831  66.0306424  73.3542307  27.1520333  65.0851394  72.8917829
  27.3263931  65.6856726  73.3648373  23.7271915  64.4315339  72.9306737
  24.1117068  64.2123045  73.6823282  23.4783536  65.2578284  73.0607814
  23.7473988  64.5213485  73.0607814  21.4472353  56.1012275  78.2615518
  20.5794778  56.1734875  78.3273127  21.7347557  56.9034354  78.4503493
  21.3612101  56.2306422  78.2990284  30.5705241  56.2490135  86.5926840
  31.3158833  56.0599945  86.1790265  30.1542546  56.7748373  86.0340696
  30.6190216  56.2992280  86.4491413  24.0095158  72.6520214  75.0039107
  24.2993456  72.2609196  74.2798334  24.7398639  72.8336919  75.4444383
  24.1602042  72.6214028  74.9621915  31.6495918  61.8595697  80.6536941
  31.3060684  61.1386032  81.0044190  31.7488961  61.6509548  79.8115299
  31.6137961  61.7219900  80.5808621  32.1108948  68.3221401  76.1960929
  32.6766980  68.9814611  76.1119472  31.4636851  68.6671099  76.6677331
  32.0987704  68.4703342  76.2533685  19.3739705  59.5770534  75.7032394
  19.0864500  59.2071805  74.9664341  20.0610173  60.0465390  75.4416099
  19.4328602  59.5917504  75.5547470  28.5815526  71.2660185  75.6198008
  28.3402202  70.5328046  75.2125073  28.7616859  71.8147042  74.9664341
  28.5723150  71.2382576  75.4628231  23.8114846  66.5568745  77.0318930
  23.6157629  67.1643479  76.4379233  24.0349192  65.8636689  76.5510604
  23.8149487  66.5446270  76.8735011  22.2093376  63.4423483  77.1499799
  22.9316028  63.6064641  76.6903605  21.7301369  64.1633148  77.0439138
  22.2457107  63.5721712  77.0665413  30.1686884  59.7787281  82.5296484
  29.3297984  59.8048560  82.2934747  30.2391251  60.4258017  83.1101830
  30.0555277  59.8783407  82.5805601  28.6156162  56.6772659  77.2624100
  29.3182515  56.4780407  76.7844058  28.3500351  55.9048601  77.5692943
  28.6802794  56.5335625  77.2369541  34.0444408  64.9855268  79.8157725
  33.9578382  65.1410694  80.6692504  33.5894888  65.6293344  79.4417130
  33.9647664  65.1031023  79.8864832  16.9467899  60.3551747  76.5517675
  17.0484036  61.1577908  76.8798651  17.7423786  60.1539083  76.2540756
  17.0795805  60.4437646  76.5553030  27.9170224  62.3066015  78.4383285
  27.6704938  62.2261766  79.2720074  28.2455347  61.5219483  78.2445812
  27.9291467  62.1792281  78.5330808  33.3071645  68.3727628  72.9886565
  32.9278454  67.5864766  72.9815855  32.6437891  68.9214485  72.8458210
  33.1530120  68.3372452  72.9667362  26.2888945  58.1363453  86.5226803
  26.7461560  58.8687427  86.6499596  26.3645274  57.7129918  87.2814059
  26.3679915  58.1820691  86.6527880  30.7616271  51.3153328  80.3920646
  30.8799839  51.7729792  79.6587949  30.5878447  50.5098589  80.1056864
  30.7535442  51.2647100  80.2421580  26.1318554  71.9241148  76.8275392
  26.8968445  71.6550791  76.5058056  26.0296644  71.4391158  77.5445454
  26.2300049  71.8130712  76.8855219  24.1671323  60.1265557  83.3668627
  23.3767398  59.9457017  83.6885963  24.5631946  59.3492510  83.3498922
  24.1088200  59.9853018  83.4121176  28.6537214  68.9553331  68.8075341
  29.4210199  69.0153456  68.3981193  28.2068523  68.3833773  68.3231659
  28.7010641  68.8789907  68.6753051  29.5515010  67.7607987  81.0928073
  28.8760011  67.5293219  81.5941460  29.5607386  67.1529170  80.4670178
  29.4533514  67.6366912  81.0744226  31.5531744  70.6173120  73.3238251
  31.6351582  71.4240106  72.9999702  32.0381486  70.6369079  74.0479025
  31.6368902  70.7393782  73.3825150  25.3628247  65.2957955  81.9908329
  24.9390497  65.4962454  81.2547348  25.1873103  64.4486803  82.1032629
  25.2739128  65.2006737  81.8982019  20.6510692  65.7910007  77.4236302
  20.8075312  65.7256810  78.2792294  20.9911286  66.5658559  77.2114981
  20.7243927  65.8959205  77.5190896  27.1889837  65.1667890  76.2929665
  27.7305383  64.6638272  76.7568285  27.5036396  65.1133085  75.4819150
  27.3154234  65.0847311  76.2413477  25.3576287  70.5585242  73.5769693
  25.4269107  69.6999780  73.7162693  26.1364742  70.7757123  73.2488718
  25.4829137  70.4638106  73.5486850  28.3379106  60.0604195  86.3451965
  28.5521076  59.4215109  85.7915319  27.7213006  60.5050019  85.9159827
  28.2784436  60.0314339  86.2002396  29.7483774  72.9822943  77.7906186
  29.3563566  72.6789658  77.0729052  29.9036847  73.8192033  77.6011140
  29.7137364  73.0606780  77.6562683  29.9123449  69.5472932  77.7312217
  29.5538104  69.7187575  78.5076249  29.4262160  70.0086138  77.1740215
  29.7882146  69.6411903  77.7637486  27.7293835  53.1704131  81.3339308
  26.8587393  53.1442852  81.2872618  27.9834176  52.9981323  80.5165154
  27.6387395  53.1414274  81.2059445  24.7011815  65.2272098  70.2712451
  24.9904339  66.0036980  70.5456025  24.7883613  64.7160829  70.9726951
  24.7566071  65.2664016  70.4154949  24.7542976  55.1810359  82.7912779
  24.2381464  54.4890551  82.9164358  24.1936904  55.8481136  82.7375377
  24.5949489  55.1773617  82.8018845  26.8235209  55.7203319  84.6205631
  26.4366962  55.7452351  85.4019161  26.3368146  55.1544998  84.1680148
  26.6947718  55.6399070  84.6693535  32.7985189  62.2865974  83.2445333
  32.3712797  62.1992323  82.4893433  32.1611242  62.3943750  83.8300177
  32.6414796  62.2898634  83.2190775  26.4892351  52.6070305  86.9115891
  27.1185469  53.1430605  86.6336961  26.6578213  52.5147664  87.7629457
  26.6070145  52.6731667  86.9964419  29.9816269  55.1406193  79.8801193
  30.1865863  55.0728501  80.7258190  29.6542693  55.9465014  79.8122370
  29.9631517  55.2492133  79.9960848  24.6792420  62.4686761  81.6210161
  24.3755558  61.9142750  82.2220568  23.9771841  62.6478971  81.1338195
  24.5308630  62.4131544  81.6379866  23.7358517  59.7787281  76.1854863
  24.0118252  59.0606194  75.7732430  24.3357187  60.3772201  75.9775969
  23.8651782  59.7607652  76.0935624  33.2349957  55.6937957  79.3603958
  32.6224271  56.1808359  79.7457690  33.3314132  55.0181448  79.9041609
  33.1587855  55.6656266  79.4982817  27.2369038  57.4500798  74.4601458
  27.6912784  57.6211359  75.1849302  27.7109084  56.8368909  74.0599233
  27.3737358  57.3851684  74.5075219  24.5782058  64.1543333  75.5646465
  25.3224103  64.5417609  75.8029415  24.7242754  63.3100758  75.7286953
  24.7092643  64.0873806  75.6240435  26.4961633  55.9493592  80.5978326
  25.6497678  56.1216399  80.4719676  26.4932766  55.1442935  80.9344155
  26.3708783  55.8554621  80.6289453  27.5659934  59.7268806  81.4640384
  27.0919888  59.2010568  81.9745695  27.9378070  59.1798279  80.8955246
  27.5509823  59.5684803  81.4555531  29.4943433  60.6205361  74.5266138
  28.9666452  60.7034105  73.8371847  29.9539142  61.3623232  74.5230783
  29.4845284  60.7426023  74.4240833  35.8301851  61.5672639  80.8276424
  35.5911621  61.5268473  79.9897208  35.9935753  62.4143791  80.9542145
  35.8192155  61.6864724  80.7229906  21.4876499  58.8907880  69.5507033
  21.1389303  59.5427606  70.0138583  21.0072944  58.8764993  68.8230904
  21.3646743  58.9850934  69.5118124  29.0480516  69.1908924  73.6575795
  29.7714715  69.6567037  73.5140368  28.6081107  69.2582534  72.9073392
  29.0896208  69.2692761  73.5260576  28.5145798  54.3237145  86.2660006
  28.0186360  54.5200819  85.5751573  29.2714860  54.7229813  86.0948808
  28.5532623  54.4114879  86.1380143  25.7848678  57.9979491  82.8563317
  25.8091165  57.4639603  82.1676097  26.0360151  57.4896800  83.5188907
  25.8258597  57.8440395  82.8527961  22.0650000  56.7250309  82.2369061
  22.1048372  57.2259516  82.9503768  21.2399665  56.8160703  81.9674984
  21.9489526  56.8132126  82.3019599  21.8600407  61.5166411  75.0633078
  22.0003368  62.0138875  75.7661719  22.3582940  60.8152705  75.2047291
  21.9541488  61.4868389  75.1884657  21.8900630  62.3833522  72.3925655
  22.5245709  62.9793947  72.3275116  21.9726241  62.0836979  73.2071525
  21.9957181  62.4274430  72.5028741  23.4679613  58.3147497  72.3671097
  23.7895454  57.8350580  71.7130359  23.7306556  59.1247143  72.1761908
  23.5545638  58.3637395  72.2426589  28.8638768  57.7019691  84.7294576
  29.2893839  57.2492218  84.1178102  28.2495761  57.1479762  85.0059363
  28.8367413  57.5533667  84.6799601  18.3953618  64.5801362  75.6615201
  18.9045847  65.1765870  76.0426506  18.8687890  64.3127336  74.9791620
  18.5396993  64.6287178  75.6169723  29.3084366  73.2529629  73.8173856
  28.5913675  73.0790491  73.3521093  29.9591103  73.0182201  73.2849342
  29.2986216  73.1925422  73.6703074  27.3032990  54.1734791  78.1385153
  26.6601308  54.0232437  78.7070291  26.9632397  53.9277136  77.3734257
  27.1578068  54.1146913  78.1088168  31.8932337  62.1294218  77.5615161
  31.2223527  62.6723920  77.4328227  32.5872087  62.5989073  77.3196856
  31.8961204  62.2792489  77.5070689  32.0560464  58.5850101  80.4705534
  32.4088074  58.1579824  81.1451333  31.1975266  58.5000945  80.6006611
  31.9809909  58.5094842  80.5900545  20.7544149  61.2157621  78.5288381
  20.0356138  61.6321754  78.7961245  21.1256512  61.7811860  77.9780019
  20.7036081  61.3606902  78.4871188  30.0543730  61.8485470  84.4190377
  30.0341657  61.6668765  85.2725156  30.1022931  62.7197488  84.3949960
  30.0578371  61.9502008  84.5413671  26.5290724  60.2555621  73.8661760
  25.9355563  60.5772617  73.3146327  26.5666001  59.4096716  73.6582867
  26.4465113  60.1779949  73.7544532  33.4884524  53.7068513  81.3989847
  32.9815389  52.9997653  81.3311024  34.2851958  53.3761702  81.5290924
  33.5311764  53.5541665  81.4088842  29.4048540  60.2135125  77.2963511
  29.1762233  60.2367827  76.4541869  29.6646616  59.3892592  77.4158521
  29.4094728  60.0951205  77.1888708  22.4593303  58.7511672  78.5917706
  22.9350669  59.1128752  77.9567887  21.9581902  59.4068139  78.8717849
  22.4558662  58.9005860  78.5394447  35.6904664  68.2233440  74.3830711
  36.0738270  68.9724796  74.6128808  34.8948778  68.4699259  74.1242700
  35.6298447  68.3703134  74.3788285  24.5019956  60.8952872  71.9591090
  24.8818921  60.9132501  71.1742205  23.7612552  61.3406860  71.8381938
  24.4488794  60.9634646  71.8254659  32.1305246  59.2035063  77.5466669
  32.1299473  59.0483719  78.4050945  31.9261427  60.0498050  77.4908055
  32.1005024  59.3055683  77.6654608  29.8546099  63.8832565  81.2002876
  30.3499764  63.1655560  81.1606896  29.0445874  63.5803362  81.0857363
  29.8089992  63.7330211  81.1776602  25.3004710  67.7330378  73.3499880
  24.4916033  67.4097051  73.3033190  25.8079619  67.0263600  73.2828129
  25.2554377  67.5811694  73.3330175  28.5076517  70.3470516  80.2181162
  28.9787695  71.0610779  80.3871147  28.8436695  69.7469266  80.7541032
  28.6271632  70.3641981  80.3213538  25.4246012  55.1197987  87.1739257
  25.5573917  54.3228980  87.5020232  25.8091165  55.6464390  87.7537533
  25.5002341  55.0797904  87.3082760  28.4978367  52.0428313  83.7720350
  27.6924331  51.9326043  84.0888188  28.3685102  52.1440769  82.9150216
  28.3598500  52.0411983  83.6928391  31.9544328  58.2073805  84.3660047
  31.3707316  58.7083011  83.9537614  32.2748622  57.7003361  83.7324370
  31.9157503  58.2065640  84.2118554  24.4939127  57.1214400  74.6418722
  25.3154821  57.2912713  74.4000417  24.0308778  57.2761661  73.9185019
  24.5470289  57.1696133  74.4990366  23.0834459  55.1157162  85.4217151
  23.6278872  54.7748289  86.0121492  23.1371394  55.9742623  85.5638435
  23.1723578  55.1912421  85.5299024  38.0063575  78.8677984  71.8367796
  38.2459579  79.0755968  71.0243139  38.3279416  78.0635493  71.9456740
  38.0900733  78.7792085  71.7328349  33.3153866  70.7971380  75.6827334
  34.0699834  71.1649697  75.4444384  33.1381400  71.1710934  76.4506513
  33.4008344  70.9069568  75.7612222  31.6710930  73.2041699  72.3805447
  31.4886503  73.4213580  71.5546439  32.5336543  73.3180712  72.4364061
  31.7715520  73.2531597  72.2659934  37.3510649  70.2068110  75.4154470
  38.0796810  70.0284065  74.9692627  37.4405542  71.0486189  75.6261649
  37.4717311  70.3051988  75.3807988  31.2172957  76.4815872  70.8927920
  30.5031134  76.1954051  71.3050352  31.7016926  76.8212497  71.5334307
  31.1832321  76.4897521  71.0483555  30.3472288  75.0955842  75.7032394
  30.0597084  74.7257113  74.9664341  31.0342756  75.5650698  75.4416099
  30.4061186  75.1102812  75.5547470  27.9200483  75.8737055  76.5517675
  28.0216619  76.6763216  76.8798651  28.7156370  75.6724391  76.2540756
  28.0528388  75.9622954  76.5553030  35.6744398  80.7457405  70.2712451
  35.9636923  81.5222288  70.5456025  35.7616197  80.2346137  70.9726951
  35.7298654  80.7849324  70.4154949  38.2101622  72.9686106  74.4601458
  38.6645368  73.1396667  75.1849302  38.6841667  72.3554217  74.0599233
  38.3469942  72.9036992  74.5075219  32.4609082  74.4093188  69.5507033
  32.1121887  75.0612913  70.0138583  31.9805528  74.3950301  68.8230904
  32.3379326  74.5036242  69.5118124  32.8633213  77.9018830  72.3925655
  33.4978293  78.4979255  72.3275116  32.9458824  77.6022287  73.2071525
  32.9689764  77.9459738  72.5028741  34.4412196  73.8332805  72.3671097
  34.7628037  73.3535888  71.7130359  34.7039140  74.6432451  72.1761908
  34.5278222  73.8822703  72.2426589  37.5023307  75.7740929  73.8661760
  36.9088147  76.0957925  73.3146327  37.5398585  74.9282024  73.6582867
  37.4197696  75.6965257  73.7544532  35.4752540  76.4138179  71.9591090
  35.8551504  76.4317809  71.1742205  34.7345136  76.8592168  71.8381938
  35.4221377  76.4819954  71.8254659  35.4671710  72.6399708  74.6418722
  36.2887405  72.8098021  74.4000417  35.0041361  72.7946969  73.9185019
  35.5202872  72.6881441  74.4990366   4.9941297  18.2290321  59.3576828
   4.6592666  18.9067242  58.9221050   5.5068168  17.8395632  58.7693700
   5.0206879  18.2714899  59.2063620   9.7792088  11.7578884  61.6819429
   9.6631613  12.5086570  62.1111567  10.5747974  11.5002838  61.9315516
   9.8796677  11.8313731  61.7823521   7.5021393  12.4886529  59.9933719
   7.4172688  13.3447495  60.1383288   7.9905776  12.2130853  60.6615878
   7.5610290  12.5743850  60.1135800   5.1673348  15.3668033  58.2029775
   5.5824497  15.0353057  57.5114270   4.3365278  15.1336935  58.0749911
   5.1061357  15.2839289  58.0820622   7.8606739  11.6178592  57.3890976
   7.7786901  11.6880779  58.2545963   8.4986459  12.1808336  57.1974717
   7.9426576  11.7117563  57.4880926   1.7580815  18.5527730  61.9379154
   2.0479113  18.1616711  61.2138381   2.4884295  18.7344435  62.3784430
   1.9087699  18.5221544  61.8961961   1.8654686  21.9024502  63.7869996
   2.5178744  21.3700944  64.0161022   1.1680295  21.5493154  64.1737870
   1.8585404  21.7714025  63.8782164   6.3301182  17.1667700  62.5538055
   6.0887858  16.4335561  62.1465120   6.5102515  17.7154557  61.9004388
   6.3208806  17.1390091  62.3968278  11.0557302  14.2735144  59.9226612
  10.6764111  13.4872282  59.9155902  10.3923548  14.8222001  59.7798256
  10.9015777  14.2379968  59.9007409   6.4022871  14.8560847  55.7415388
   7.1695856  14.9160972  55.3321240   5.9554180  14.2841288  55.2571706
   6.4496298  14.7797422  55.6093098   9.3017401  16.5180635  60.2578298
   9.3837238  17.3247621  59.9339749   9.7867143  16.5376594  60.9819072
   9.3854559  16.6401297  60.3165197   3.1061944  16.4592757  60.5109740
   3.1754764  15.6007296  60.6502740   3.8850399  16.6764638  60.1828764
   3.2314794  16.3645621  60.4826897   7.4969431  18.8830459  64.7246233
   7.1049223  18.5797174  64.0069099   7.6522503  19.7199549  64.5351187
   7.4623021  18.9614295  64.5902730   6.7966173  15.0916440  60.5915842
   7.5200372  15.5574553  60.4480415   6.3566764  15.1590049  59.8413439
   6.8381865  15.1700276  60.4600623   7.0570022  19.1537144  60.7513903
   6.3399332  18.9798007  60.2861140   7.7076760  18.9189717  60.2189389
   7.0471873  19.0932937  60.6043121  13.4390321  14.1240955  61.3170758
  13.8223927  14.8732311  61.5468855  12.6434434  14.3706775  61.0582747
  13.3784103  14.2710649  61.3128332  22.9308097  24.7011890  63.4101119
  22.9002101  25.5556527  63.5819389  23.5289445  24.4007183  63.9687263
  23.0145255  24.7828387  63.5175921  16.1307781  23.7887541  68.1654050
  15.2745677  23.9496039  68.2163166  16.1775435  22.9179605  68.1859111
  16.0106893  23.6838343  68.1760116  10.5148921  33.3250259  63.9291281
   9.7631821  32.9465797  63.7007326  10.9634933  33.3568693  63.1810091
  10.4698588  33.2735866  63.7848783  15.9673881  33.7475629  59.3576828
  15.6325250  34.4252550  58.9221050  16.4800751  33.3580940  58.7693700
  15.9939462  33.7900207  59.2063620  15.5078172  35.6989897  65.2987940
  15.8917552  36.2676796  64.7592715  15.4437314  34.9739408  64.8193756
  15.5551600  35.6765361  65.1481802  18.9759602  25.8479585  70.8085701
  19.5215563  26.5264672  70.8679671  18.9176479  25.7067046  69.9487283
  19.0475517  25.9271587  70.6897762  12.0933677  33.3368651  66.1954054
  12.1944040  32.5269005  66.5051181  11.4975423  33.2425598  65.5653732
  12.0206216  33.2033679  66.1480292  20.7524671  27.2764192  61.6819429
  20.6364197  28.0271878  62.1111567  21.5480558  27.0188145  61.9315516
  20.8529261  27.3499039  61.7823521  11.9334417  38.2546240  67.5968910
  12.5771872  38.6959404  67.9865068  12.2590672  37.4499667  67.5099168
  12.0766246  38.2011435  67.6414387   5.2898722  29.3588938  65.8206387
   5.0548906  28.5256590  65.7138656   5.4284362  29.6393603  65.0067588
   5.2754384  29.2772441  65.6848742  12.6354997  31.2658215  62.9688771
  12.9570838  31.8063423  62.3650079  13.2827093  30.6954987  63.1011061
  12.7781052  31.2617390  62.8995807  14.6856705  23.2674210  63.0523158
  15.3836869  23.4462338  63.5444621  15.0009037  22.7444550  62.4293547
  14.8352042  23.2167982  63.0325168  14.8744640  29.6544655  63.0402950
  15.3138276  29.0461756  63.4857722  14.7249303  29.2752029  62.2688415
  14.9166106  29.5083126  62.9922117  12.3416283  28.2488667  70.2421775
  12.9865286  27.7561110  69.9232724  12.5818060  28.3913454  71.0687853
  12.4726868  28.1966109  70.3171308  14.8802374  31.0943573  69.8928668
  15.1625617  30.2994979  69.6715423  15.6088535  31.5724160  69.9133729
  15.0291938  31.0478170  69.8631683  18.4753977  28.0071836  59.9933719
  18.3905272  28.8632803  60.1383288  18.9638360  27.7316161  60.6615878
  18.5342874  28.0929158  60.1135800  20.0659976  14.6252130  65.3794043
  19.7513417  15.3155608  65.8114466  19.5486918  14.5696912  64.6779544
  19.9424447  14.7187018  65.3390992  19.4072410  24.6256631  61.4931454
  18.8783881  24.8416264  62.1528760  19.9297430  25.3192769  61.4132423
  19.4060863  24.7599768  61.5787053  24.8620463  30.2002935  66.8664498
  24.0318166  30.4113579  67.0297915  24.8129715  29.3739990  66.5906782
  24.7327198  30.1092541  66.8501864  11.2972018  28.5219847  60.2938922
  10.7129233  29.0269879  60.7004786  10.8942113  28.2962234  59.5535514
  11.1511322  28.5628096  60.2443947   6.8516046  34.2374609  67.0962593
   6.3683625  34.9625098  67.0722177   7.6639365  34.5350739  67.2072751
   6.9006794  34.3876962  67.1089873  12.9230200  33.0306789  69.7012408
  12.4057142  32.6714204  69.0973716  13.6204592  32.5068964  69.7118474
  12.9495781  32.9004477  69.6142667  16.5793792  33.4801603  75.6628581
  16.6677138  33.2927744  76.5106791  17.0083505  32.8339033  75.2633428
  16.6555895  33.3564611  75.7300332  14.1464252  32.7632763  74.6446243
  13.5835087  32.3505373  75.1685904  14.9085276  32.6885669  75.0639386
  14.1758701  32.6910164  74.7839243  15.7549232  24.7685499  58.7707842
  15.9945236  24.9763483  57.9583186  16.0765073  23.9643008  58.8796787
  15.8386390  24.6799601  58.6668396  11.0639522  16.6978895  62.6167380
  11.8185490  17.0657212  62.3784431  10.8867057  17.0718450  63.3846560
  11.1494001  16.8077083  62.6952269   9.7060244  34.7530784  67.2482873
  10.4080823  34.2382774  67.3055630   9.6257727  35.0804936  68.0529748
   9.7984004  34.7245011  67.3755665  24.3574421  22.8473336  70.6614920
  23.5202842  22.9175523  70.8962514  24.3262652  22.8497831  69.7889222
  24.2292704  22.8583563  70.5674468   9.4196587  19.1049214  59.3145493
   9.2372160  19.3221095  58.4886486  10.2822200  19.2188227  59.3704108
   9.5201176  19.1539112  59.1999980   9.0311019  30.9437136  66.7568481
   9.8699918  31.1760069  66.8042243   9.0622788  30.0741448  66.6875517
   9.1592737  30.8494083  66.7533126   9.6563722  31.3638012  71.0581787
  10.1961947  31.2209143  71.7285159   8.9733668  31.7634762  71.4265813
   9.6355876  31.4017683  71.2116209  15.0996306  16.1075625  62.3494517
  15.8282467  15.9291580  61.9032673  15.1891199  16.9493705  62.5601695
  15.2202968  16.2059503  62.3148035  19.0804607  27.0429012  66.2526811
  19.8362122  27.4760527  66.2915720  19.1866931  26.3933782  66.8261447
  19.2074777  27.0106496  66.3424837  22.1184778  30.8702290  67.0029214
  21.6820010  30.8739032  67.7588186  21.7847693  31.5507789  66.5708792
  22.0047398  30.9714745  67.0510047  22.0382261  17.9116117  69.2458642
  22.6808169  17.9814222  69.8320557  22.2905282  17.2445340  68.7438184
  22.1704393  17.8242466  69.2585921   8.9658614  22.3823387  57.8267966
   8.2516791  22.0961566  58.2390399   9.4502583  22.7220013  58.4674354
   8.9317977  22.3905037  57.9823601  16.8484245  34.8220724  71.9738820
  16.0499491  34.5820224  72.2312689  17.2970256  34.8735117  72.7205868
  16.7958856  34.7943116  72.1223744  25.2529124  27.5883209  65.8948851
  25.9145558  27.0273878  65.7944760  24.6120536  27.0935240  66.2201543
  25.2557992  27.4319618  65.9281192  16.1405932  30.8853341  58.2029775
  16.5557080  30.5538365  57.5114270  15.3097862  30.6522243  58.0749911
  16.0793941  30.8024597  58.0820622   5.4694281  28.3697082  68.4927953
   5.2869854  28.3443968  67.6400245   6.2043950  28.8396020  68.5316861
   5.5508345  28.4358444  68.3725871  21.5393955  28.6048592  65.6360840
  21.7749544  28.7493791  64.8087691  21.6883519  29.3691000  66.0292354
  21.5959758  28.7387646  65.5724444  23.3684412  27.4450258  63.4730444
  23.6992629  27.9777898  62.8670539  23.9417500  27.4989146  64.1292395
  23.5018091  27.5319827  63.4808226  18.5816301  25.2915160  64.1554024
  18.6763155  26.0304455  64.6093650  17.9575144  24.8632636  64.5888589
  18.5025331  25.3376481  64.2862172  18.8339322  27.1363900  57.3890976
  18.7519485  27.2066087  58.2545963  19.4719043  27.6993644  57.1974717
  18.9159159  27.2302871  57.4880926  12.1932493  26.9024638  66.8565502
  11.9351738  26.0696373  66.8296802  12.2480976  27.1282251  66.0158003
  12.1632271  26.8122409  66.7285639  17.2733543  19.0053089  66.9569595
  16.5689870  18.5162274  67.1153514  17.3218518  19.0175563  66.0858040
  17.1763595  18.9342737  66.8508935  11.1667205  24.4562401  67.3430397
  10.5916797  24.6154569  67.9794358  10.7902882  23.8197810  66.8798848
  11.0270018  24.3860214  67.3684956  24.4763763  22.6860755  64.9770606
  24.2200328  21.8740696  64.7868488  25.3193077  22.6938322  64.7500793
  24.5629789  22.5672752  64.9155423  15.9379432  27.1584355  60.3999583
  16.7520071  27.4499247  60.2882354  15.8738574  26.5044217  59.8257876
  16.0482171  27.1049549  60.2988420  22.1588922  29.8410351  74.8129158
  21.9227560  29.0098415  74.6941219  22.8032151  29.7895958  75.3984002
  22.2183593  29.7108039  74.8815052   6.4999983  32.8694208  69.4106198
   6.5404128  33.1409060  68.5825978   7.0594507  33.3936117  69.8263986
   6.5883329  32.9869964  69.3498087  12.4490156  25.8508162  59.8646784
  12.8335308  25.6315868  60.6163329  12.2001776  26.6771107  59.9947860
  12.4692228  25.9406308  59.9947860  23.1825343  29.6254799  70.8757453
  22.8771160  30.3582856  71.2370768  22.4631559  29.2192729  70.5950239
  23.0312685  29.6736532  70.8870590  14.1908813  31.1078295  67.2065681
  14.2647821  30.9453466  68.0607531  15.0078319  31.2968484  66.9626163
  14.3225171  31.1115037  67.2963707  28.8827135  26.2647800  70.2025797
  28.8151635  26.2843759  69.3328384  28.8682798  27.1078127  70.4281468
  28.8705892  26.3921535  70.1078274   7.9514569  31.4536157  64.2360124
   7.1252687  31.6997895  64.1094403   8.0126560  31.3748238  65.1022183
   7.8388736  31.4781106  64.3449069  10.1690593  17.5205098  65.1955565
   9.3013018  17.5927698  65.2613174  10.4565797  18.3227177  65.3843540
  10.0830341  17.6499246  65.2330331  12.7313398  34.0713038  61.9379154
  13.0211697  33.6802019  61.2138381  13.4616879  34.2529743  62.3784430
  12.8820282  34.0406851  61.8961961  26.6685753  25.0392186  68.4772391
  27.2193674  24.4060255  68.7169483  26.6529868  25.5707579  69.1687896
  26.7470949  25.0241134  68.6151250  13.3208143  28.8730784  73.0232285
  12.8219837  29.5846551  73.1017173  14.1308368  29.1931450  72.9850447
  13.3664250  29.0257632  73.0288853  10.6719314  36.0480420  65.0039304
  10.4519609  35.7577775  65.7965971  10.4513836  35.3895375  64.4757216
  10.6066908  35.9080128  65.0428213   9.5836261  28.1353737  67.2695006
   9.2949510  27.5091208  67.8040733  10.4519609  28.0774024  67.3359686
   9.6696513  28.0341281  67.3585960  20.3714159  23.2788520  67.5876988
  20.0278925  22.5578855  67.9384237  20.4707201  23.0702371  66.7455346
  20.3356202  23.1412723  67.5148668  12.8387270  37.4209810  63.7869996
  13.4911328  36.8886252  64.0161022  12.1412878  37.0678462  64.1737870
  12.8317987  37.2899333  63.8782164   9.7868534  29.7748988  63.1937371
  10.5414502  30.1562027  63.4072833   9.1939147  30.2260131  63.6484067
   9.8105248  29.8977815  63.2920249  20.8327188  29.7414224  63.1300976
  21.3985221  30.4007434  63.0459519  20.1855091  30.0863922  63.6017378
  20.8205944  29.8896165  63.1873732  11.1066761  30.9457549  68.5677486
  10.5847515  31.0857841  69.2529351  11.4940781  30.1868213  68.7579603
  11.0870462  30.8543073  68.6978563   8.0957945  20.9963358  62.6372441
   7.8082741  20.6264628  61.9004388   8.7828413  21.4658213  62.3756146
   8.1546842  21.0110327  62.4887517  17.3033766  32.6853008  62.5538055
  17.0620442  31.9520869  62.1465120  17.4835099  33.2339865  61.9004388
  17.2941390  32.6575399  62.3968278  12.5333087  27.9761568  63.9658977
  12.3375869  28.5836303  63.3719280  12.7567432  27.2829512  63.4850651
  12.5367728  27.9639094  63.8075058  10.9311617  24.8616306  64.0839846
  11.6534269  25.0257464  63.6243652  10.4519609  25.5825971  63.9779185
  10.9675347  24.9914536  64.0005460  18.8905124  21.1980105  69.4636530
  18.0516225  21.2241384  69.2274794  18.9609491  21.8450840  70.0441877
  18.7773518  21.2976231  69.5145647  17.3374402  18.0965482  64.1964146
  18.0400755  17.8973230  63.7184105  17.0718591  17.3241424  64.5032990
  17.4021035  17.9528448  64.1709588  22.7662648  26.4048092  66.7497772
  22.6796623  26.5603518  67.6032551  22.3113128  27.0486167  66.3757177
  22.6865905  26.5223847  66.8204879   5.6686140  21.7744570  63.4857722
   5.7702276  22.5770732  63.8138697   6.4642026  21.5731906  63.1880802
   5.8014045  21.8630469  63.4893077  16.6388464  23.7258839  65.3723332
  16.3923178  23.6454590  66.2060121  16.9673587  22.9412306  65.1785859
  16.6509708  23.5985104  65.4670855  20.5336513  30.4342198  69.1610113
  20.3950872  31.1323244  69.6658855  19.7536511  30.2790854  68.8046295
  20.3979740  30.5142365  69.1836387  11.6713246  34.6518329  71.6507342
  11.8202810  34.0921245  70.9980746  12.4513248  34.7310331  72.0339860
  11.8087340  34.5803894  71.6104291  22.0289886  29.7920452  59.9226612
  21.6496694  29.0057590  59.9155902  21.3656131  30.3407309  59.7798256
  21.8748361  29.7565276  59.9007409  14.1966547  34.8232972  72.9291832
  14.1210218  34.1541782  73.4842621  14.1256406  35.5250760  73.4432499
  14.1747154  34.8277879  73.0868681  14.8536794  33.3433971  63.7615438
  15.6186685  33.0743615  63.4398103  14.7514884  32.8583981  64.4785501
  14.9518289  33.2323535  63.8195266  17.3755454  30.3746155  55.7415388
  18.1428440  30.4346280  55.3321240  16.9286763  29.8026596  55.2571706
  17.4228882  30.2982730  55.6093098  18.2733250  29.1800810  68.0268120
  17.5978252  28.9486043  68.5281507  18.2825626  28.5721993  67.4010225
  18.1751755  29.0559736  68.0084272  20.2749985  32.0365943  60.2578298
  20.3569822  32.8432929  59.9339749  20.7599727  32.0561902  60.9819072
  20.3587142  32.1586605  60.3165197  14.0846488  26.7150779  68.9248376
  13.6608737  26.9155278  68.1887394  13.9091343  25.8679627  69.0372676
  13.9957368  26.6199560  68.8322066  13.5858181  38.2301292  71.3869833
  14.0754112  37.5312081  71.2045498  13.0142414  37.9325162  71.9745891
  13.5742711  38.0827515  71.4470874   9.3728933  27.2102830  64.3576349
   9.5293552  27.1449633  65.2132341   9.7129526  27.9851383  64.1455028
   9.4462168  27.3152028  64.4530943  15.9108077  26.5860714  63.2269712
  16.4523623  26.0831095  63.6908332  16.2254636  26.5325908  62.4159197
  16.0372475  26.5040135  63.1753524  14.0794527  31.9778065  60.5109740
  14.1487347  31.1192604  60.6502740  14.8582982  32.1949946  60.1828764
  14.2047377  31.8830929  60.4826897  18.4702015  34.4015767  64.7246233
  18.0781806  34.0982482  64.0069099  18.6255087  35.2384856  64.5351187
  18.4355605  34.4799603  64.5902730   5.9463194  24.3937781  64.6737116
   6.3262159  24.8122326  64.0097383   5.3718559  24.9751236  64.9805959
   5.9174519  24.5415639  64.6213857  18.6341689  30.9665755  64.6652264
  18.2756344  31.1380398  65.4416296  18.1480400  31.4278961  64.1080262
  18.5100386  31.0604726  64.6977533  13.4230055  26.6464921  57.2052498
  13.7122580  27.4229803  57.4796072  13.5101854  26.1353652  57.9066997
  13.4784311  26.6856839  57.3494996  19.7946429  31.8569651  75.6119464
  20.4326149  31.3629847  75.2781921  19.1520520  31.7847052  75.0271691
  19.7940655  31.7728660  75.4761819  21.5203429  23.7058797  70.1785380
  21.0931037  23.6185146  69.4233480  20.8829482  23.8136573  70.7640224
  21.3633036  23.7091457  70.1530822  19.8500685  32.5489460  72.2524821
  20.6393064  32.1978524  72.3726903  20.0244283  33.3625848  71.9901455
  19.9920967  32.6175317  72.2312689   9.5893996  25.9598185  69.3052610
   8.7482002  25.8602060  69.5131504   9.7984004  26.7293666  69.6566931
   9.4958688  26.0590229  69.3879925   7.0669563  23.5817722  67.1337361
   6.6726261  23.6560734  66.3587470   6.5109680  23.9675669  67.6845723
   6.9272375  23.6499497  67.1005021  18.7034510  16.5599016  66.8141240
  18.9084103  16.4921324  67.6598237  18.3760934  17.3657838  66.7462417
  18.6849757  16.6684957  66.9300895  13.4010661  23.8879585  68.5550208
  13.0973798  23.3335573  69.1560615  12.6990081  24.0671794  68.0678242
  13.2526871  23.8324367  68.5719913  12.4576758  21.1980104  63.1194909
  12.7336492  20.4799017  62.7072477  13.0575427  21.7965024  62.9116016
  12.5870022  21.1800475  63.0275671  21.9568197  17.1130781  66.2944005
  21.3442511  17.6001183  66.6797737  22.0532372  16.4374271  66.8381656
  21.8806095  17.0849089  66.4322863  15.9587278  18.8693622  61.3941504
  16.4131025  19.0404182  62.1189349  16.4327324  18.2561732  60.9939280
  16.0955598  18.8044507  61.4415266   9.4802804  28.3541948  70.7244243
   8.8890737  28.9951446  70.6947258  10.2423827  28.7779565  70.6975542
   9.5051064  28.5117786  70.7159390  25.5993225  28.1847717  71.7221521
  25.6576349  28.6334366  72.4681498  24.9659693  28.5946530  71.2851601
  25.5144520  28.3121452  71.7674070  13.3000298  25.5736156  62.4986512
  14.0442343  25.9610432  62.7369462  13.4460994  24.7293581  62.6627000
  13.4310883  25.5066629  62.5580481  16.2878174  21.1461629  68.3980431
  15.8138128  20.6203391  68.9085742  16.6596310  20.5991102  67.8295293
  16.2728063  20.9877626  68.3895578  22.5514905  26.2064005  69.8087212
  22.3113128  25.3670420  69.8129638  23.0306912  26.2864172  70.5327985
  22.5867088  26.0945405  69.9162014  18.2161674  22.0398184  61.4606185
  17.6884692  22.1226928  60.7711894  18.6757382  22.7816055  61.4570830
  18.2063524  22.1618846  61.3580880  24.5520092  22.9865462  67.7616471
  24.3129862  22.9461296  66.9237255  24.7153993  23.8336614  67.8882192
  24.5410395  23.1057547  67.6569953  21.1566122  27.3715411  73.6921516
  21.8800321  26.9187938  73.5132536  20.8916084  27.6520077  72.9093844
  21.2247395  27.3466380  73.5500231  10.2094739  20.3100704  56.4847080
   9.8607543  20.9620429  56.9478629   9.7291185  20.2957817  55.7570951
  10.0864983  20.4043757  56.4458171  17.7698756  30.6101748  60.5915842
  18.4932955  31.0759860  60.4480415  17.3299347  30.6775357  59.8413439
  17.8114449  30.6885584  60.4600623  16.9384911  27.4699290  71.8416531
  16.3241904  26.9257340  72.1365166  17.4552196  26.9563526  71.3622347
  16.9240574  27.3135699  71.8140759  16.1781209  28.5403560  69.5760830
  15.7508817  27.9153278  69.1426265  16.1706153  28.2578482  70.4019837
  16.1140350  28.4056340  69.6340657  10.5818648  22.9359234  61.9973125
  10.7221609  23.4331698  62.7001766  11.0801180  22.2345528  62.1387338
  10.6759729  22.9061213  62.1224704  10.6118870  23.8026345  59.3265701
  11.2463950  24.3986770  59.2615163  10.6944481  23.5029803  60.1411572
  10.7175421  23.8467253  59.4368788  23.5901436  26.3341822  72.1952066
  24.1819276  26.9739073  72.2270264  24.0260430  25.6364859  72.4844132
  23.7419867  26.3260173  72.2432898  12.1897853  19.7340320  59.3011143
  12.5113694  19.2543403  58.6470406  12.4524797  20.5439966  59.1101955
  12.2763878  19.7830218  59.1766635  15.4194826  30.7559195  72.8209959
  14.9119917  31.3095042  73.2650590  15.1221472  30.8167485  72.0028734
  15.2999711  30.8465506  72.7658416   7.1171858  25.9994186  62.5955247
   7.6264087  26.5958693  62.9766553   7.5906130  25.7320159  61.9131667
   7.2615234  26.0480001  62.5509770  18.0302606  34.6722452  60.7513903
  17.3131916  34.4983315  60.2861140  18.6809344  34.4375025  60.2189389
  18.0204456  34.6118245  60.6043121  16.0251231  15.5927614  65.0725199
  15.3819549  15.4425260  65.6410338  15.6850638  15.3469959  64.3074304
  15.8796308  15.5339737  65.0428215  20.6150577  23.5487041  64.4955208
  19.9441767  24.0916743  64.3668274  21.3090327  24.0181896  64.2536903
  20.6179445  23.6985312  64.4410736  14.6637311  35.6883753  69.7266966
  14.4402965  34.9302582  70.0950993  14.1747154  35.7181774  69.0047406
  14.5580760  35.5805977  69.6743707  20.7778705  20.0042925  67.4045581
  21.1306315  19.5772648  68.0791380  19.9193506  19.9193768  67.5346658
  20.7028149  19.9287665  67.5240592   9.4762390  22.6350444  65.4628428
   8.7574379  23.0514577  65.7301291   9.8474752  23.2004683  64.9120066
   9.4254321  22.7799726  65.4211235  18.7761971  23.2678293  71.3530424
  18.7559898  23.0861588  72.2065202  18.8241171  24.1390312  71.3290007
  18.7796612  23.3694831  71.4753718  13.3115768  35.9084211  67.1804051
  12.8976167  35.2458341  66.7907893  13.9963142  36.0562070  66.6599745
  13.3514140  35.8324869  67.0460548  16.6781062  35.0674296  67.9327668
  16.2797345  35.1776567  67.1648488  16.0632282  35.2756363  68.5154227
  16.5279951  35.1147864  67.9058967  15.2508964  21.6748444  60.8001807
  14.6573803  21.9965441  60.2486374  15.2884242  20.8289540  60.5922913
  15.1683353  21.5972772  60.6884579  22.2102765  15.1261336  68.3329894
  21.7033629  14.4190476  68.2651071  23.0070199  14.7954525  68.4630970
  22.2530004  14.9734488  68.3428889  18.1266781  21.6327949  64.2303557
  17.8980474  21.6560650  63.3881916  18.3864857  20.8085416  64.3498568
  18.1312969  21.5144029  64.1228755  11.1811543  20.1704495  65.5257753
  11.6568909  20.5321575  64.8907934  10.6800143  20.8260963  65.8057896
  11.1776902  20.3198684  65.4734494  24.4122905  29.6426263  61.3170758
  24.7956510  30.3917619  61.5468855  23.6167018  29.8892083  61.0582747
  24.3516687  29.7895957  61.3128332  13.2238196  22.3145695  58.8931137
  13.6037161  22.3325324  58.1082252  12.4830792  22.7599684  58.7721984
  13.1707034  22.3827469  58.7594705  20.8523487  20.6227886  64.4806716
  20.8517713  20.4676543  65.3390992  20.6479667  21.4690873  64.4248101
  20.8223265  20.7248507  64.5994655  18.5764339  25.3025388  68.1342923
  19.0718004  24.5848383  68.0946943  17.7664115  24.9996185  68.0197410
  18.5308232  25.1523034  68.1116649  14.0222950  29.1523201  60.2839927
  13.2134273  28.8289875  60.2373237  14.5297859  28.4456423  60.2168176
  13.9772617  29.0004517  60.2670222   4.6513228  26.5795394  66.0087291
   3.7858747  26.5681085  65.8970063   4.7512044  26.3925617  66.8558431
   4.5387395  26.5501455  66.1176236  20.6416158  28.0529075  70.8220051
  21.0671229  27.5303497  70.2690476  20.2773078  28.6509913  70.3008674
  20.6502760  28.0639302  70.6629061  10.2770238  36.3493293  69.5817397
  10.5916797  37.1629681  69.5895179  10.6863651  35.9643511  70.2499556
  10.3838336  36.4121995  69.6821489  17.2294757  31.7663340  67.1521209
  17.7005935  32.4803602  67.3211194  17.5654936  31.1662090  67.6881078
  17.3489872  31.7834804  67.2553585  17.8668704  31.5581274  73.9148902
  17.3189649  30.9339157  73.6468967  18.3281732  31.7475546  73.1992981
  17.8535913  31.4940324  73.7699333  13.2157367  18.5407223  61.5758769
  14.0373061  18.7105536  61.3340464  12.7527018  18.6954484  60.8525066
  13.2688529  18.5888956  61.4330413   7.6183258  30.2966401  69.2296005
   8.2228115  30.2562235  68.6009826   7.4110570  31.1437553  69.2600061
   7.6772155  30.4154404  69.1412122  17.4327030  32.5632346  70.4458243
  18.2525404  32.4195312  70.7074538  17.1521107  33.1878545  70.9874681
  17.5123773  32.6342698  70.5646182  27.1040365  39.3072849  68.1654050
  26.2478261  39.4681347  68.2163166  27.1508019  38.4364913  68.1859111
  26.9839476  39.2023651  68.1760116  30.4134082  45.5759375  77.7714506
  31.1200849  45.0811405  77.9001440  30.6022017  46.0168456  77.0417164
  30.5461987  45.5677725  77.6823551  29.9492186  41.3664893  70.8085701
  30.4948146  42.0449980  70.8679671  29.8909062  41.2252354  69.9487283
  30.0208100  41.4456895  70.6897762  22.9067001  53.7731548  67.5968910
  23.5504456  54.2144712  67.9865068  23.2323256  52.9684974  67.5099168
  23.0498829  53.7196743  67.6414387  16.2631305  44.8774246  65.8206387
  16.0281490  44.0441898  65.7138656  16.4016946  45.1578911  65.0067588
  16.2486968  44.7957749  65.6848742  18.5621393  37.0459976  68.7190695
  17.9426424  36.4552624  68.5500710  18.4605256  37.6371412  68.0855018
  18.4559068  37.0464059  68.5995685  18.2890526  40.5912258  70.9634264
  18.1649223  41.1774704  71.5984083  18.9408810  40.0972454  71.2646539
  18.3664175  40.6051062  71.1020193  23.3148867  43.7673975  70.2421775
  23.9597869  43.2746418  69.9232724  23.5550644  43.9098762  71.0687853
  23.4459452  43.7151417  70.3171308  25.8534958  46.6128881  69.8928668
  26.1358201  45.8180287  69.6715423  26.5821118  47.0909468  69.9133729
  26.0024522  46.5663478  69.8631683  23.8316152  34.1551915  67.1344433
  23.5019482  34.6063058  66.4648131  23.1561154  34.0768078  67.6817439
  23.6826588  34.2103050  67.1167656  31.0392560  30.1437438  65.3794043
  30.7246001  30.8340916  65.8114466  30.5219501  30.0882220  64.6779544
  30.9157030  30.2372326  65.3390992  17.8248630  49.7559916  67.0962593
  17.3416208  50.4810406  67.0722177  18.6371948  50.0536047  67.2072751
  17.8739378  49.9062270  67.1089873  23.8962784  48.5492097  69.7012408
  23.3789726  48.1899512  69.0973716  24.5937175  48.0254272  69.7118474
  23.9228365  48.4189785  69.6142667  27.5526376  48.9986911  75.6628581
  27.6409722  48.8113052  76.5106791  27.9816088  48.3524341  75.2633428
  27.6288478  48.8749919  75.7300332  25.1196836  48.2818071  74.6446243
  24.5567671  47.8690681  75.1685904  25.8817859  48.2070977  75.0639386
  25.1491284  48.2095472  74.7839243  20.6792827  50.2716092  67.2482873
  21.3813406  49.7568081  67.3055630  20.5990310  50.5990244  68.0529748
  20.7716588  50.2430319  67.3755665  35.3307005  38.3658644  70.6614920
  34.4935426  38.4360831  70.8962514  35.2995236  38.3683139  69.7889222
  35.2025287  38.3768871  70.5674468  21.7271734  40.5091679  76.3763288
  21.8992237  40.3997574  77.2248570  22.2641091  41.1546085  76.1394481
  21.8316738  40.5883681  76.4668385  20.0043603  46.4622444  66.7568481
  20.8432502  46.6945377  66.8042243  20.0355372  45.5926756  66.6875517
  20.1325320  46.3679391  66.7533126  20.6296306  46.8823320  71.0581787
  21.1694531  46.7394451  71.7285159  19.9466252  47.2820070  71.4265813
  20.6088459  46.9202990  71.2116209  26.0728890  31.6260933  62.3494517
  26.8015050  31.4476888  61.9032673  26.1623783  32.4679013  62.5601695
  26.1935552  31.7244811  62.3148035  33.0917362  46.3887597  67.0029214
  32.6552593  46.3924340  67.7588186  32.7580277  47.0693096  66.5708792
  32.9779982  46.4900053  67.0510047  27.6646435  48.4295930  78.3272365
  28.4486852  48.5426778  78.6928107  27.4643030  47.6037067  78.5231050
  27.7512461  48.3242650  78.4106751  16.0333451  43.1023610  71.2116208
  15.7671866  42.2862727  71.3707199  16.0472015  43.1476766  70.3411724
  15.9958173  42.9880515  71.1069690  33.0114844  33.4301425  69.2458642
  33.6540753  33.4999530  69.8320557  33.2637865  32.7630648  68.7438184
  33.1436977  33.3427774  69.2585921  20.7832057  36.6401989  73.8583216
  20.0903854  36.1698968  74.1043948  21.3992384  36.4140293  74.4324923
  20.7716587  36.5369120  73.9792369  27.8216829  50.3406032  71.9738820
  27.0232074  50.1005532  72.2312689  28.2702840  50.3920425  72.7205868
  27.7691440  50.3128423  72.1223744  16.4426864  43.8882390  68.4927953
  16.2602438  43.8629276  67.6400245  17.1776533  44.3581328  68.5316861
  16.5240928  43.9543752  68.3725871  19.5072616  40.6067393  75.0010061
  20.2312588  40.5920423  75.4874956  19.6088752  41.3162748  74.5032029
  19.6290825  40.7092096  74.9988848  26.8817565  44.0866477  79.8659008
  26.0890546  44.4009989  80.0511628  26.9966493  44.3017946  79.0279793
  26.7812976  44.1650314  79.7697343  27.8101358  43.9886681  74.8044305
  28.3840220  43.3513925  74.9592869  27.7316162  43.9890763  73.9353963
  27.8834593  43.8951792  74.6990716  16.4097775  40.7675890  68.6427019
  16.9871277  40.6312341  69.2819265  15.7111836  40.3111675  68.8972604
  16.3918796  40.6798157  68.7749309  28.2466127  34.5238397  66.9569595
  27.5422454  34.0347582  67.1153514  28.2951101  34.5360871  66.0858040
  28.1496179  34.4528045  66.8508935  22.1399789  39.9747709  67.3430397
  21.5649380  40.1339877  67.9794358  21.7635465  39.3383118  66.8798848
  22.0002601  39.9045522  67.3684956  25.8073078  38.4471058  72.2022776
  25.4187510  38.0225276  71.5474967  25.1427776  38.6953208  72.7099802
  25.6520005  38.4209779  72.1810644  11.8856608  39.6187783  65.3574838
  11.9716860  39.2419652  66.1388368  12.5132405  39.2448229  64.8794796
  11.9913159  39.5073266  65.4020315  29.6299439  32.1445687  69.7146760
  30.0109951  31.4623858  70.1014634  28.8262723  31.8555289  69.5322424
  29.5675901  32.0012735  69.7450816  33.1321506  45.3595659  74.8129158
  32.8960143  44.5283723  74.6941219  33.7764735  45.3081266  75.3984002
  33.1916177  45.2293347  74.8815052  17.4732567  48.3879516  69.4106198
  17.5136712  48.6594367  68.5825978  18.0327091  48.9121424  69.8263986
  17.5615912  48.5055271  69.3498087  23.5891280  34.6499885  79.5809368
  23.2744721  35.4199448  79.3178931  23.2681212  34.0870141  78.9961595
  23.4950199  34.6810154  79.4550718  34.1557927  45.1440107  70.8757453
  33.8503744  45.8768164  71.2370768  33.4364142  44.7378037  70.5950239
  34.0045269  45.1921840  70.8870590  39.8559719  41.7833108  70.2025797
  39.7884219  41.8029067  69.3328384  39.8415381  42.6263435  70.4281468
  39.8438475  41.9106843  70.1078274  18.9247153  46.9721465  64.2360124
  18.0985270  47.2183203  64.1094403  18.9859144  46.8933546  65.1022183
  18.8121320  46.9966414  64.3449069  21.1423177  33.0390406  65.1955565
  20.2745602  33.1113006  65.2613174  21.4298381  33.8412485  65.3843540
  21.0562925  33.1684553  65.2330331  30.2656065  33.1868266  73.5266886
  31.0109657  32.9978076  73.1130312  29.8493370  33.7126504  72.9680743
  30.3141040  33.2370411  73.3831460  37.6418336  40.5577494  68.4772391
  38.1926258  39.9245563  68.7169483  37.6262452  41.0892887  69.1687896
  37.7203533  40.5426442  68.6151250  24.2940727  44.3916092  73.0232285
  23.7952421  45.1031859  73.1017173  25.1040951  44.7116758  72.9850447
  24.3396834  44.5442940  73.0288853  20.5568845  43.6539045  67.2695006
  20.2682093  43.0276516  67.8040733  21.4252193  43.5959332  67.3359686
  20.6429096  43.5526589  67.3585960  20.7601118  45.2934296  63.1937371
  21.5147086  45.6747335  63.4072833  20.1671731  45.7445439  63.6484067
  20.7837832  45.4163123  63.2920249  23.2207785  37.2497136  78.3194583
  22.4107561  37.5554916  78.2084425  23.6982472  37.9702718  78.4347167
  23.1711264  37.4011737  78.3201654  22.0799345  46.4642857  68.5677486
  21.5580098  46.6043149  69.2529351  22.4673365  45.7053521  68.7579603
  22.0603045  46.3728381  68.6978563  19.0690529  36.5148666  62.6372441
  18.7815324  36.1449936  61.9004388  19.7560997  36.9843521  62.3756146
  19.1279426  36.5295635  62.4887517  29.8637708  36.7165413  69.4636530
  29.0248808  36.7426692  69.2274794  29.9342075  37.3636148  70.0441877
  29.7506101  36.8161538  69.5145647  19.5551817  42.7859686  73.1893985
  20.0672914  43.0643940  72.5402745  19.2688160  43.5248980  73.5556798
  19.5886680  42.9362040  73.1483863  28.3106986  33.6150790  64.1964146
  29.0133339  33.4158538  63.7184105  28.0451175  32.8426732  64.5032990
  28.3753618  33.4713756  64.1709588  16.6418723  37.2929878  63.4857722
  16.7434860  38.0956040  63.8138697  17.4374610  37.0917214  63.1880802
  16.7746629  37.3815777  63.4893077  23.0735542  34.8786075  73.2495027
  22.8818739  34.8941209  74.0994451  23.9234138  35.0749749  73.2261682
  23.1711264  34.9100426  73.3718322  17.4582455  37.4077056  71.2278843
  17.3167947  36.5560997  71.3523351  17.7423019  37.4505717  70.4041049
  17.4790301  37.2876806  71.1246468  31.5069096  45.9527506  69.1610113
  31.3683456  46.6508552  69.6658855  30.7269094  45.7976162  68.8046295
  31.3712323  46.0327673  69.1836387  29.8447182  42.2523881  75.4132495
  29.8395220  41.3803698  75.4174921  30.5508175  42.4512050  74.9401950
  29.9492186  42.1527755  75.3439530  23.5718075  41.9800865  74.7846315
  23.7161451  42.5602073  74.1489425  23.9193724  42.3577162  75.4896169
  23.6445536  42.1221569  74.7945310  25.7437992  41.1791033  72.5671446
  24.9961306  41.3722048  72.1619724  25.8979518  40.3536253  72.3295568
  25.6560420  41.0856145  72.4716852  22.6445830  50.1703637  71.6507342
  22.7935394  49.6106553  70.9980746  23.4245832  50.2495639  72.0339860
  22.7819924  50.0989202  71.6104291  25.1699131  50.3418280  72.9291832
  25.0942802  49.6727090  73.4842621  25.0988990  51.0436068  73.4432499
  25.1479737  50.3463187  73.0868681  25.9839769  35.0741584  73.4566850
  26.4412383  35.8065559  73.5839642  26.0596098  34.6508049  74.2154106
  26.0630739  35.1198822  73.5867927  18.2272761  35.3207404  74.5456294
  17.6914950  34.7087762  74.8617061  18.2890525  35.8955540  75.1989960
  18.1568393  35.3154332  74.6891721  30.4567095  28.2531459  67.3260693
  30.5750663  28.7107923  66.5927996  30.2829271  27.4476721  67.0396911
  30.4486266  28.2025232  67.1761627  23.8622147  37.0643688  70.3008674
  23.0718222  36.8835148  70.6226010  24.2582770  36.2870641  70.2838969
  23.8039023  36.9231149  70.3461223  29.2465834  44.6986118  68.0268120
  28.5710835  44.4671351  68.5281507  29.2558210  44.0907301  67.4010225
  29.1484338  44.5745044  68.0084272  26.3759978  39.5403947  74.7832173
  26.3119119  40.4013904  74.6552310  26.5157165  39.2235940  73.9827724
  26.3875448  39.6204114  74.6460386  25.0579071  42.2336087  68.9248376
  24.6341321  42.4340586  68.1887394  24.8823927  41.3864935  69.0372676
  24.9689952  42.1384868  68.8322066  24.5590765  53.7486600  71.3869833
  25.0486695  53.0497389  71.2045498  23.9874997  53.4510470  71.9745891
  24.5475295  53.6012823  71.4470874  20.3461516  42.7288138  64.3576349
  20.5026136  42.6634941  65.2132341  20.6862110  43.5036691  64.1455028
  20.4194751  42.8337336  64.4530943  30.7557768  46.3148669  80.3396624
  31.5692634  46.0433818  80.5001756  30.5952735  46.0156209  79.5356820
  30.8527717  46.2303595  80.2442030  28.0329930  36.9982326  73.2792012
  28.2471900  36.3593240  72.7255366  27.4163830  37.4428150  72.8499874
  27.9735260  36.9692470  73.1342443  16.9195778  39.9123089  64.6737116
  17.2994743  40.3307633  64.0097383  16.3451143  40.4936544  64.9805959
  16.8907103  40.0600947  64.6213857  30.1969018  38.6071391  74.2175319
  29.3845700  38.2997282  74.2988492  30.6558953  38.1270391  74.7818031
  30.1449403  38.4907884  74.3129913  27.4244659  30.1082262  68.2679355
  26.5538217  30.0820983  68.2212664  27.6785000  29.9359454  67.4505201
  27.3338219  30.0792406  68.1399492  27.2922526  40.0131463  79.0004022
  27.7622157  40.6373579  79.3871896  27.3384406  39.3448438  79.5597236
  27.3690402  40.0066143  79.1404093  24.4493800  32.1188490  69.7252825
  23.9332288  31.4268682  69.8504404  23.8887728  32.7859267  69.6715424
  24.2900313  32.1151748  69.7358891  26.5186033  32.6581450  71.5545678
  26.1317786  32.6830482  72.3359208  26.0318970  32.0923129  71.1020195
  26.3898542  32.5777201  71.6033582  30.7679012  47.3754959  75.6119464
  31.4058733  46.8815155  75.2781921  30.1253104  47.3032360  75.0271691
  30.7673239  47.2913968  75.4761819  32.4936012  39.2244105  70.1785380
  32.0663621  39.1370454  69.4233480  31.8562065  39.3321881  70.7640224
  32.3365620  39.2276765  70.1530822  26.1843175  29.5448436  73.8455938
  26.8136293  30.0808736  73.5677008  26.3529037  29.4525795  74.6969504
  26.3020969  29.6109798  73.9304466  25.9857090  34.3319630  76.1182349
  26.8130519  34.0604779  76.1740964  26.0064936  35.1280472  76.4746168
  26.1109940  34.4099385  76.1797532  30.8233269  48.0674768  72.2524821
  31.6125647  47.7163832  72.3726903  30.9976867  48.8811156  71.9901455
  30.9653551  48.1360625  72.2312689  20.5626579  41.4783493  69.3052610
  19.7214586  41.3787367  69.5131504  20.7716587  42.2478974  69.6566931
  20.4691272  41.5775537  69.3879925  18.0402146  39.1003030  67.1337361
  17.6458844  39.1746042  66.3587470  17.4842263  39.4860977  67.6845723
  17.9004959  39.1684805  67.1005021  29.6767093  32.0784324  66.8141240
  29.8816687  32.0106632  67.6598237  29.3493517  32.8843145  66.7462417
  29.6582341  32.1870265  66.9300895  24.3743244  39.4064892  68.5550208
  24.0706382  38.8520881  69.1560615  23.6722665  39.5857102  68.0678242
  24.2259454  39.3509675  68.5719913  22.4361595  46.6214613  73.2622305
  22.3281950  46.6316675  74.1284363  22.6457377  47.4469394  73.0727259
  22.4511706  46.7455688  73.3626397  32.9300781  32.6316089  66.2944005
  32.3175094  33.1186491  66.6797737  33.0264956  31.9559579  66.8381656
  32.8538679  32.6034397  66.4322863  20.4535387  43.8727256  70.7244243
  19.8623321  44.5136754  70.6947258  21.2156411  44.2964873  70.6975542
  20.4783648  44.0303094  70.7159390  20.8496010  35.0329253  71.3912261
  21.3097492  35.1068183  72.1287384  20.8952117  35.8310507  71.0412082
  20.9246565  35.1623400  71.4485017  22.4979360  35.6995948  75.9584288
  22.1064925  35.0529295  76.3940065  22.6665223  36.2907383  76.5778543
  22.4650270  35.6910216  76.1146994  36.5725809  43.7033025  71.7221521
  36.6308933  44.1519674  72.4681498  35.9392276  44.1131838  71.2851601
  36.4877104  43.8306760  71.7674070  30.2124904  49.3236567  68.1576267
  30.0144592  49.8127382  67.4632479  29.5912615  49.5277809  68.7360401
  30.0912468  49.4253105  68.1399491  26.1912457  32.8871723  67.5318373
  25.3448502  33.0594531  67.4059723  26.1883590  32.0821067  67.8684201
  26.0659607  32.7932752  67.5629500  27.2610758  36.6646937  68.3980431
  26.7870712  36.1388699  68.9085742  27.6328894  36.1176410  67.8295293
  27.2460647  36.5062934  68.3895578  17.6383788  38.6618444  73.7663977
  18.5009401  38.5614153  73.6801307  17.3075571  38.0813153  73.2049549
  17.7168984  38.5610071  73.6709383  33.5247488  41.7249313  69.8087212
  33.2845711  40.8855728  69.8129638  34.0039495  41.8049480  70.5327985
  33.5599672  41.6130713  69.9162014  32.1298705  42.8900719  73.6921516
  32.8532904  42.4373246  73.5132536  31.8648668  43.1705385  72.9093844
  32.1979979  42.8651688  73.5500231  20.9985574  37.4860893  70.4274395
  20.3738644  37.4979285  69.8200348  20.6631169  37.9621068  71.0765635
  20.8571066  37.5579410  70.4330964  17.7111249  45.5461353  71.8678159
  17.1811174  44.8553792  71.9173134  17.9836343  45.5371538  71.0390868
  17.6735972  45.4428485  71.7525575  27.9117495  42.9884598  71.8416531
  27.2974488  42.4442648  72.1365166  28.4284780  42.4748834  71.3622347
  27.8973157  42.8321007  71.8140759  27.1513792  44.0588868  69.5760830
  26.7241400  43.4338586  69.1426265  27.1438737  43.7763790  70.4019837
  27.0872933  43.9241648  69.6340657  20.2676319  39.0954041  72.6449263
  20.4269806  38.3397365  73.0500985  20.0869213  39.6444980  73.2990001
  20.2641678  39.0647855  72.8011969  28.2096622  31.2615276  73.2000053
  27.7137183  31.4578951  72.5091620  28.9665684  31.6607945  73.0288855
  28.2483447  31.3493010  73.0720190  25.4799502  34.9357622  69.7903364
  25.5041989  34.4017735  69.1016143  25.7310975  34.4274931  70.4528954
  25.5209421  34.7818526  69.7868008  12.9907092  42.2189117  69.2246508
  12.8850541  42.1735962  68.3598592  12.2407312  42.5642898  69.5060792
  12.8642695  42.2630025  69.1383837  21.7600824  33.6628441  69.1709108
  21.7999196  34.1637647  69.8843815  20.9350489  33.7538834  68.9015031
  21.6440350  33.7510257  69.2359646  23.9430437  43.2289180  77.2729402
  23.0926067  43.3660895  77.4087047  24.1058565  42.4952959  77.7177104
  23.8414300  43.1403282  77.3585002  23.1815187  40.1788950  71.4683007
  22.3507117  40.3462768  71.2618255  23.1266705  39.8024901  72.2531892
  23.0504602  40.1478682  71.5531535  20.9898971  33.6697843  77.1039418
  21.6151674  33.1259976  77.3768850  20.5349451  33.1892761  76.5347208
  21.0147231  33.5187325  77.0601011  34.5634019  41.8527130  72.1952066
  35.1551860  42.4924381  72.2270264  34.9993014  41.1550167  72.4844132
  34.7152451  41.8445481  72.2432898  26.3927409  46.2744503  72.8209959
  25.8852500  46.8280349  73.2650590  26.0954055  46.3352793  72.0028734
  26.2732294  46.3650814  72.7658416  28.5589591  34.6397822  71.6634622
  28.9844663  34.1870349  71.0518149  27.9446585  34.0857893  71.9399410
  28.5318237  34.4911798  71.6139648  18.0904442  41.5179494  62.5955247
  18.5996671  42.1144001  62.9766553  18.5638714  41.2505467  61.9131667
  18.2347817  41.5665309  62.5509770  26.9983814  31.1112922  65.0725199
  26.3552132  30.9610568  65.6410338  26.6583221  30.8655267  64.3074304
  26.8528892  31.0525045  65.0428215  25.6369895  51.2069061  69.7266966
  25.4135549  50.4487890  70.0950993  25.1479738  51.2367082  69.0047406
  25.5313344  51.0991285  69.6743707  31.7511288  35.5228233  67.4045581
  32.1038898  35.0957955  68.0791380  30.8926090  35.4379076  67.5346658
  31.6760733  35.4472973  67.5240592  20.4494973  38.1535752  65.4628428
  19.7306962  38.5699885  65.7301291  20.8207336  38.7189991  64.9120066
  20.3986905  38.2985034  65.4211235  29.7494554  38.7863601  71.3530424
  29.7292481  38.6046896  72.2065202  29.7973755  39.6575620  71.3290007
  29.7529195  38.8880139  71.4753718  27.6940884  45.3750793  77.2778900
  27.6536739  44.7300470  76.6924056  28.5064202  45.3187410  77.5904312
  27.8084037  45.2709760  77.2375849  27.6513646  50.5859604  67.9327668
  27.2529929  50.6961875  67.1648488  27.0364865  50.7941671  68.5154227
  27.5012535  50.6333172  67.9058967  33.1835348  30.6446644  68.3329894
  32.6766213  29.9375784  68.2651071  33.9802782  30.3139833  68.4630970
  33.2262588  30.4919796  68.3428889  23.3818593  39.0047730  73.8328658
  22.8697496  38.3968913  74.1913689  23.2098089  39.7204322  74.3002633
  23.2808230  39.0211029  73.9544881  18.2284307  37.4485305  76.4831019
  18.0586898  38.1086680  75.9379226  17.7850257  37.6591866  77.2043509
  18.1383641  37.5771287  76.5092649  22.1544127  35.6889803  65.5257753
  22.6301493  36.0506883  64.8907934  21.6532726  36.3446270  65.8057896
  22.1509486  35.8383992  65.4734494  27.2587663  36.9271974  76.2730913
  27.8159093  36.6985784  75.6409379  26.9348728  37.6877640  75.9966126
  27.2934073  37.0055811  76.1387410  15.1286372  40.3532171  71.7419509
  14.5813091  39.6832816  71.8600378  15.9178750  39.9862018  71.8062977
  15.1638556  40.1997157  71.7688210  24.9770780  40.0139628  77.2382920
  25.7282107  40.3291304  77.5522475  25.1693357  39.8118799  76.4116842
  25.1162194  40.0307009  77.1626316  13.8873341  39.5652978  68.8965532
  13.7095102  39.1129587  69.6220448  13.5992363  40.3679140  69.0804010
  13.8186295  39.6175536  69.0309035  15.6245811  42.0980702  66.0087291
  14.7591331  42.0866393  65.8970063  15.7244627  41.9110925  66.8558431
  15.5119978  42.0686763  66.1176236  31.6148741  43.5714383  70.8220051
  32.0403813  43.0488805  70.2690476  31.2505661  44.1695221  70.3008674
  31.6235344  43.5824610  70.6629061  21.2502821  51.8678601  69.5817397
  21.5649380  52.6814989  69.5895179  21.6596234  51.4828819  70.2499556
  21.3570919  51.9307303  69.6821489  30.2904325  48.8949961  79.3313281
  30.4001291  48.1058521  79.6870028  30.6195222  48.8055897  78.5287619
  30.3556731  48.7655814  79.2655672  25.1196836  32.0576118  74.1079304
  25.2524741  31.2607111  74.4360279  25.5041988  32.5842521  74.6877579
  25.1953165  32.0176035  74.2422807  28.8401287  47.0766582  73.9148902
  28.2922233  46.4524465  73.6468967  29.3014316  47.2660854  73.1992981
  28.8268497  47.0125632  73.7699333  28.1929191  28.9806444  70.7060397
  27.3875155  28.8704174  71.0228235  28.0635926  29.0818900  69.8490263
  28.0549324  28.9790114  70.6268437  31.6495151  35.1451936  71.3000094
  31.0658140  35.6461143  70.8877661  31.9699445  34.6381492  70.6664417
  31.6108327  35.1443771  71.1458601  22.7785282  32.0535293  72.3557197
  23.3229695  31.7126420  72.9461539  22.8322218  32.9120755  72.4978482
  22.8674402  32.1290552  72.4639071  18.5915841  45.8151709  69.2296005
  19.1960699  45.7747543  68.6009826  18.3843154  46.6622861  69.2600061
  18.6504739  45.9339712  69.1412122  28.4059613  48.0817654  70.4458243
  29.2257987  47.9380620  70.7074538  28.1253691  48.7063853  70.9874681
  28.4856357  48.1528006  70.5646182  13.8267124  44.7986327  69.0994928
  13.7291402  43.9882598  69.4084985  14.6095993  44.7778120  68.7141197
  13.9283260  44.6753417  69.0881791  38.0772949  54.8258157  68.1654050
  37.2210844  54.9866655  68.2163166  38.1240602  53.9550221  68.1859111
  37.9572060  54.7208959  68.1760116  32.4614088  64.3620875  63.9291281
  31.7096988  63.9836413  63.7007326  32.9100100  64.3939309  63.1810091
  32.4163755  64.3106482  63.7848783  41.3866665  61.0944683  77.7714506
  42.0933432  60.5996713  77.9001440  41.5754601  61.5353764  77.0417164
  41.5194571  61.0863033  77.6823551  37.9139048  64.7846244  59.3576828
  37.5790417  65.4623166  58.9221050  38.4265919  64.3951556  58.7693700
  37.9404629  64.8270823  59.2063620  37.4543339  66.7360513  65.2987940
  37.8382719  67.3047412  64.7592715  37.3902481  66.0110023  64.8193756
  37.5016767  66.7135977  65.1481802  40.9224770  56.8850201  70.8085701
  41.4680730  57.5635288  70.8679671  40.8641646  56.7437662  69.9487283
  40.9940684  56.9642203  70.6897762  34.0398844  64.3739267  66.1954054
  34.1409207  63.5639621  66.5051181  33.4440590  64.2796213  65.5653732
  33.9671383  64.2404295  66.1480292  33.8799584  69.2916856  67.5968910
  34.5237040  69.7330020  67.9865068  34.2055840  68.4870282  67.5099168
  34.0231413  69.2382051  67.6414387  27.2363889  60.3959554  65.8206387
  27.0014073  59.5627206  65.7138656  27.3749530  60.6764219  65.0067588
  27.2219551  60.3143057  65.6848742  29.5353976  52.5645284  68.7190695
  28.9159008  51.9737931  68.5500710  29.4337840  53.1556719  68.0855018
  29.4291652  52.5649367  68.5995685  29.2623109  56.1097566  70.9634264
  29.1381806  56.6960011  71.5984083  29.9141394  55.6157762  71.2646539
  29.3396759  56.1236370  71.1020193  34.2881450  59.2859283  70.2421775
  34.9330453  58.7931726  69.9232724  34.5283227  59.4284069  71.0687853
  34.4192035  59.2336725  70.3171308  36.8267542  62.1314189  69.8928668
  37.1090784  61.3365594  69.6715423  37.5553702  62.6094776  69.9133729
  36.9757105  62.0848786  69.8631683  34.8048735  49.6737223  67.1344433
  34.4752065  50.1248366  66.4648131  34.1293737  49.5953386  67.6817439
  34.6559172  49.7288358  67.1167656  46.8085630  61.2373551  66.8664498
  45.9783333  61.4484195  67.0297915  46.7594882  60.4110606  66.5906782
  46.6792365  61.1463157  66.8501864  28.7981213  65.2745224  67.0962593
  28.3148792  65.9995714  67.0722177  29.6104532  65.5721354  67.2072751
  28.8471961  65.4247578  67.1089873  34.8695368  64.0677405  69.7012408
  34.3522309  63.7084820  69.0973716  35.5669759  63.5439580  69.7118474
  34.8960949  63.9375093  69.6142667  38.5258960  64.5172219  75.6628581
  38.6142305  64.3298360  76.5106791  38.9548672  63.8709649  75.2633428
  38.6021062  64.3935227  75.7300332  36.0929419  63.8003379  74.6446243
  35.5300254  63.3875989  75.1685904  36.8550443  63.7256285  75.0639386
  36.1223868  63.7280780  74.7839243  31.6525411  65.7901400  67.2482873
  32.3545990  65.2753389  67.3055630  31.5722894  66.1175552  68.0529748
  31.7449171  65.7615627  67.3755665  46.3039588  53.8843952  70.6614920
  45.4668009  53.9546139  70.8962514  46.2727819  53.8868446  69.7889222
  46.1757871  53.8954179  70.5674468  32.7004317  56.0276987  76.3763288
  32.8724821  55.9182882  77.2248570  33.2373675  56.6731393  76.1394481
  32.8049321  56.1068989  76.4668385  30.9776186  61.9807752  66.7568481
  31.8165086  62.2130685  66.8042243  31.0087955  61.1112064  66.6875517
  31.1057904  61.8864699  66.7533126  31.6028889  62.4008628  71.0581787
  32.1427114  62.2579759  71.7285159  30.9198835  62.8005378  71.4265813
  31.5821043  62.4388298  71.2116209  44.0649945  61.9072905  67.0029214
  43.6285177  61.9109648  67.7588186  43.7312861  62.5878404  66.5708792
  43.9512565  62.0085361  67.0510047  38.6379019  63.9481238  78.3272365
  39.4219435  64.0612086  78.6928107  38.4375613  63.1222375  78.5231050
  38.7245044  63.8427958  78.4106751  27.0066034  58.6208918  71.2116208
  26.7404449  57.8048035  71.3707199  27.0204598  58.6662074  70.3411724
  26.9690757  58.5065823  71.1069690  43.9847428  48.9486733  69.2458642
  44.6273337  49.0184838  69.8320557  44.2370449  48.2815956  68.7438184
  44.1169560  48.8613082  69.2585921  31.7564641  52.1587297  73.8583216
  31.0636437  51.6884276  74.1043948  32.3724968  51.9325601  74.4324923
  31.7449171  52.0554428  73.9792369  38.7949412  65.8591340  71.9738820
  37.9964658  65.6190840  72.2312689  39.2435424  65.9105733  72.7205868
  38.7424023  65.8313731  72.1223744  47.1994291  58.6253825  65.8948851
  47.8610725  58.0644494  65.7944760  46.5585703  58.1305856  66.2201543
  47.2023159  58.4690234  65.9281192  27.4159448  59.4067698  68.4927953
  27.2335021  59.3814584  67.6400245  28.1509117  59.8766636  68.5316861
  27.4973512  59.4729060  68.3725871  30.4805200  56.1252701  75.0010061
  31.2045172  56.1105731  75.4874956  30.5821336  56.8348056  74.5032029
  30.6023409  56.2277404  74.9988848  37.8550149  59.6051785  79.8659008
  37.0623130  59.9195297  80.0511628  37.9699076  59.8203254  79.0279793
  37.7545560  59.6835622  79.7697343  38.7833942  59.5071989  74.8044305
  39.3572803  58.8699233  74.9592869  38.7048746  59.5076071  73.9353963
  38.8567177  59.4137100  74.6990716  27.3830358  56.2861198  68.6427019
  27.9603861  56.1497649  69.2819265  26.6844420  55.8296983  68.8972604
  27.3651380  56.1983465  68.7749309  34.1397660  57.9395254  66.8565502
  33.8816905  57.1066989  66.8296802  34.1946143  58.1652867  66.0158003
  34.1097438  57.8493025  66.7285639  39.2198711  50.0423705  66.9569595
  38.5155037  49.5532890  67.1153514  39.2683685  50.0546179  66.0858040
  39.1228762  49.9713353  66.8508935  33.1132373  55.4933017  67.3430397
  32.5381964  55.6525185  67.9794358  32.7368049  54.8568426  66.8798848
  32.9735185  55.4230829  67.3684956  36.7805661  53.9656366  72.2022776
  36.3920094  53.5410584  71.5474967  36.1160360  54.2138515  72.7099802
  36.6252589  53.9395087  72.1810644  46.4228930  53.7231370  64.9770606
  46.1665495  52.9111312  64.7868488  47.2658244  53.7308938  64.7500793
  46.5094956  53.6043368  64.9155423  22.8589191  55.1373091  65.3574838
  22.9449443  54.7604960  66.1388368  23.4864989  54.7633537  64.8794796
  22.9645742  55.0258573  65.4020315  40.6032023  47.6630995  69.7146760
  40.9842534  46.9809166  70.1014634  39.7995307  47.3740597  69.5322424
  40.5408484  47.5198043  69.7450816  44.1054090  60.8780967  74.8129158
  43.8692727  60.0469031  74.6941219  44.7497319  60.8266574  75.3984002
  44.1648760  60.7478654  74.8815052  33.7552508  61.6676488  65.5271895
  34.3926455  61.4288235  66.0723688  34.1807579  61.8713647  64.7925055
  33.9128674  61.6627498  65.4989052  28.4465150  63.9064824  69.4106198
  28.4869295  64.1779675  68.5825978  29.0059674  64.4306732  69.8263986
  28.5348496  64.0240579  69.3498087  34.5623863  50.1685193  79.5809368
  34.2477304  50.9384756  79.3178931  34.2413796  49.6055449  78.9961595
  34.4682782  50.1995461  79.4550718  45.1290510  60.6625415  70.8757453
  44.8236327  61.3953472  71.2370768  44.4096726  60.2563345  70.5950239
  44.9777853  60.7107148  70.8870590  50.8292302  57.3018416  70.2025797
  50.7616803  57.3214375  69.3328384  50.8147965  58.1448743  70.4281468
  50.8171059  57.4292151  70.1078274  29.8979736  62.4906773  64.2360124
  29.0717854  62.7368510  64.1094403  29.9591728  62.4118854  65.1022183
  29.7853903  62.5151722  64.3449069  32.1155760  48.5575714  65.1955565
  31.2478186  48.6298314  65.2613174  32.4030964  49.3597793  65.3843540
  32.0295508  48.6869861  65.2330331  41.2388649  48.7053574  73.5266886
  41.9842241  48.5163384  73.1130312  40.8225953  49.2311812  72.9680743
  41.2873623  48.7555719  73.3831460  34.6778565  65.1083654  61.9379154
  34.9676864  64.7172635  61.2138381  35.4082046  65.2900358  62.3784430
  34.8285450  65.0777467  61.8961961  48.6150920  56.0762802  68.4772391
  49.1658841  55.4430871  68.7169483  48.5995035  56.6078195  69.1687896
  48.6936116  56.0611750  68.6151250  35.2673311  59.9101399  73.0232285
  34.7685004  60.6217167  73.1017173  36.0773535  60.2302066  72.9850447
  35.3129417  60.0628248  73.0288853  32.6184481  67.0851036  65.0039304
  32.3984776  66.7948391  65.7965971  32.3979003  66.4265991  64.4757216
  32.5532075  66.9450744  65.0428213  31.5301428  59.1724352  67.2695006
  31.2414677  58.5461824  67.8040733  32.3984776  59.1144640  67.3359686
  31.6161680  59.0711897  67.3585960  42.3179326  54.3159136  67.5876988
  41.9744092  53.5949471  67.9384237  42.4172368  54.1072987  66.7455346
  42.2821369  54.1783339  67.5148668  34.7852437  68.4580426  63.7869996
  35.4376495  67.9256868  64.0161022  34.0878045  68.1049078  64.1737870
  34.7783155  68.3269949  63.8782164  34.1940369  52.7682444  78.3194583
  33.3840144  53.0740224  78.2084425  34.6715055  53.4888026  78.4347167
  34.1443847  52.9197045  78.3201654  33.0531928  61.9828165  68.5677486
  32.5312682  62.1228457  69.2529351  33.4405948  61.2238829  68.7579603
  33.0335629  61.8913689  68.6978563  39.2498933  63.7223624  62.5538055
  39.0085609  62.9891485  62.1465120  39.4300266  64.2710481  61.9004388
  39.2406557  63.6946015  62.3968278  40.8370291  52.2350721  69.4636530
  39.9981392  52.2611999  69.2274794  40.9074659  52.8821456  70.0441877
  40.7238685  52.3346846  69.5145647  39.2839570  49.1336098  64.1964146
  39.9865922  48.9343846  63.7184105  39.0183758  48.3612040  64.5032990
  39.3486202  48.9899064  64.1709588  44.7127815  57.4418707  66.7497772
  44.6261790  57.5974133  67.6032551  44.2578295  58.0856783  66.3757177
  44.6331072  57.5594462  66.8204879  34.0468126  50.3971383  73.2495027
  33.8551323  50.4126517  74.0994451  34.8966722  50.5935057  73.2261682
  34.1443848  50.4285734  73.3718322  28.4315039  52.9262364  71.2278843
  28.2900531  52.0746305  71.3523351  28.7155602  52.9691025  70.4041049
  28.4522885  52.8062114  71.1246468  42.4801680  61.4712814  69.1610113
  42.3416039  62.1693860  69.6658855  41.7001678  61.3161470  68.8046295
  42.3444907  61.5512980  69.1836387  40.8179765  57.7709189  75.4132495
  40.8127804  56.8989006  75.4174921  41.5240759  57.9697358  74.9401950
  40.9224769  57.6713063  75.3439530  34.5450659  57.4986173  74.7846315
  34.6894034  58.0787381  74.1489425  34.8926307  57.8762470  75.4896169
  34.6178120  57.6406877  74.7945310  36.7170576  56.6976341  72.5671446
  35.9693890  56.8907356  72.1619724  36.8712101  55.8721561  72.3295568
  36.6293003  56.6041453  72.4716852  33.6178413  65.6888945  71.6507342
  33.7667977  65.1291861  70.9980746  34.3978416  65.7680947  72.0339860
  33.7552507  65.6174510  71.6104291  36.1431714  65.8603588  72.9291832
  36.0675385  65.1912398  73.4842621  36.0721573  66.5621376  73.4432499
  36.1212321  65.8648495  73.0868681  36.9572353  50.5926892  73.4566850
  37.4144967  51.3250866  73.5839642  37.0328682  50.1693357  74.2154106
  37.0363323  50.6384130  73.5867927  29.2005344  50.8392712  74.5456294
  28.6647534  50.2273070  74.8617061  29.2623109  51.4140848  75.1989960
  29.1300977  50.8339640  74.6891721  41.4299679  43.7716767  67.3260693
  41.5483247  44.2293231  66.5927996  41.2561855  42.9662029  67.0396911
  41.4218850  43.7210539  67.1761627  36.8001961  64.3804587  63.7615438
  37.5651852  64.1114230  63.4398103  36.6980051  63.8954597  64.4785501
  36.8983457  64.2694151  63.8195266  34.8354731  52.5828996  70.3008674
  34.0450806  52.4020456  70.6226010  35.2315354  51.8055949  70.2838969
  34.7771607  52.4416457  70.3461223  40.2198417  60.2171426  68.0268120
  39.5443419  59.9856658  68.5281507  40.2290793  59.6092609  67.4010225
  40.1216922  60.0930351  68.0084272  37.3492561  55.0589255  74.7832173
  37.2851702  55.9199212  74.6552310  37.4889749  54.7421248  73.9827724
  37.3608031  55.1389422  74.6460386  36.0311655  57.7521395  68.9248376
  35.6073904  57.9525894  68.1887394  35.8556510  56.9050243  69.0372676
  35.9422536  57.6570176  68.8322066  35.5323348  69.2671907  71.3869833
  36.0219279  68.5682697  71.2045498  34.9607581  68.9695777  71.9745891
  35.5207878  69.1198131  71.4470874  31.3194100  58.2473446  64.3576349
  31.4758719  58.1820249  65.2132341  31.6594693  59.0221999  64.1455028
  31.3927335  58.3522644  64.4530943  41.7290352  61.8333977  80.3396624
  42.5425217  61.5619126  80.5001756  41.5685318  61.5341517  79.5356820
  41.8260300  61.7488903  80.2442030  39.0062514  52.5167634  73.2792012
  39.2204484  51.8778548  72.7255366  38.3896413  52.9613458  72.8499874
  38.9467843  52.4877778  73.1342443  40.4167182  65.4386382  64.7246233
  40.0246974  65.1353098  64.0069099  40.5720254  66.2755472  64.5351187
  40.3820772  65.5170219  64.5902730  27.8928361  55.4308396  64.6737116
  28.2727326  55.8492941  64.0097383  27.3183726  56.0121852  64.9805959
  27.8639686  55.5786255  64.6213857  41.1701602  54.1256699  74.2175319
  40.3578284  53.8182590  74.2988492  41.6291537  53.6455699  74.7818031
  41.1181987  54.0093192  74.3129913  40.5806857  62.0036371  64.6652264
  40.2221511  62.1751014  65.4416296  40.0945567  62.4649577  64.1080262
  40.4565554  62.0975342  64.6977533  38.3977243  45.6267570  68.2679355
  37.5270801  45.6006291  68.2212664  38.6517584  45.4544762  67.4505201
  38.3070803  45.5977713  68.1399492  38.2655109  55.5316771  79.0004022
  38.7354741  56.1558887  79.3871896  38.3116990  54.8633746  79.5597236
  38.3422985  55.5251451  79.1404093  35.4226383  47.6373798  69.7252825
  34.9064872  46.9453990  69.8504404  34.8620312  48.3044575  69.6715424
  35.2632896  47.6337056  69.7358891  37.4918617  48.1766758  71.5545678
  37.1050370  48.2015790  72.3359208  37.0051554  47.6108437  71.1020195
  37.3631125  48.0962509  71.6033582  41.7411596  62.8940267  75.6119464
  42.3791317  62.4000463  75.2781921  41.0985688  62.8217668  75.0271691
  41.7405823  62.8099276  75.4761819  43.4668596  54.7429413  70.1785380
  43.0396204  54.6555762  69.4233480  42.8294649  54.8507189  70.7640224
  43.3098203  54.7462073  70.1530822  37.1575758  45.0633744  73.8455938
  37.7868876  45.5994044  73.5677008  37.3261621  44.9711103  74.6969504
  37.2753553  45.1295106  73.9304466  36.9589673  49.8504938  76.1182349
  37.7863103  49.5790087  76.1740964  36.9797519  50.6465780  76.4746168
  37.0842523  49.9284693  76.1797532  41.7965853  63.5860075  72.2524821
  42.5858231  63.2349140  72.3726903  41.9709450  64.3996464  71.9901455
  41.9386134  63.6545933  72.2312689  31.5359163  56.9968801  69.3052610
  30.6947170  56.8972675  69.5131504  31.7449171  57.7664281  69.6566931
  31.4423856  57.0960845  69.3879925  29.0134730  54.6188338  67.1337361
  28.6191428  54.6931350  66.3587470  28.4574847  55.0046284  67.6845723
  28.8737542  54.6870113  67.1005021  40.6499677  47.5969632  66.8141240
  40.8549270  47.5291940  67.6598237  40.3226101  48.4028453  66.7462417
  40.6314925  47.7055573  66.9300895  35.3475828  54.9250200  68.5550208
  35.0438965  54.3706189  69.1560615  34.6455249  55.1042410  68.0678242
  35.1992038  54.8694983  68.5719913  33.4094179  62.1399921  73.2622305
  33.3014534  62.1501983  74.1284363  33.6189960  62.9654701  73.0727259
  33.4244290  62.2640996  73.3626397  43.9033364  48.1501396  66.2944005
  43.2907678  48.6371799  66.6797737  43.9997539  47.4744887  66.8381656
  43.8271262  48.1219705  66.4322863  31.4267971  59.3912564  70.7244243
  30.8355904  60.0322062  70.6947258  32.1888994  59.8150181  70.6975542
  31.4516231  59.5488402  70.7159390  31.8228594  50.5514561  71.3912261
  32.2830075  50.6253491  72.1287384  31.8684700  51.3495815  71.0412082
  31.8979149  50.6808708  71.4485017  33.4711943  51.2181256  75.9584288
  33.0797509  50.5714603  76.3940065  33.6397806  51.8092691  76.5778543
  33.4382854  51.2095524  76.1146994  47.5458392  59.2218333  71.7221521
  47.6041516  59.6704982  72.4681498  46.9124860  59.6317146  71.2851601
  47.4609688  59.3492068  71.7674070  41.1857487  64.8421875  68.1576267
  40.9877176  65.3312690  67.4632479  40.5645198  65.0463117  68.7360401
  41.0645052  64.9438413  68.1399491  37.1645041  48.4057031  67.5318373
  36.3181086  48.5779839  67.4059723  37.1616173  47.6006375  67.8684201
  37.0392191  48.3118060  67.5629500  38.2343341  52.1832245  68.3980431
  37.7603296  51.6574007  68.9085742  38.6061477  51.6361718  67.8295293
  38.2193230  52.0248242  68.3895578  28.6116371  54.1803752  73.7663977
  29.4741984  54.0799461  73.6801307  28.2808154  53.5998461  73.2049549
  28.6901568  54.0795379  73.6709383  44.4980072  57.2434621  69.8087212
  44.2578295  56.4041036  69.8129638  44.9772079  57.3234788  70.5327985
  44.5332256  57.1316021  69.9162014  43.1031289  58.4086027  73.6921516
  43.8265488  57.9558554  73.5132536  42.8381251  58.6890693  72.9093844
  43.1712562  58.3836996  73.5500231  31.9718157  53.0046201  70.4274395
  31.3471228  53.0164593  69.8200348  31.6363752  53.4806376  71.0765635
  31.8303649  53.0764718  70.4330964  28.6843833  61.0646661  71.8678159
  28.1543758  60.3739100  71.9173134  28.9568926  61.0556846  71.0390868
  28.6468555  60.9613793  71.7525575  39.7163923  61.6472363  60.5915842
  40.4398122  62.1130476  60.4480415  39.2764515  61.7145973  59.8413439
  39.7579616  61.7256200  60.4600623  38.8850079  58.5069906  71.8416531
  38.2707072  57.9627956  72.1365166  39.4017363  57.9934142  71.3622347
  38.8705741  58.3506315  71.8140759  38.1246376  59.5774176  69.5760830
  37.6973984  58.9523894  69.1426265  38.1171320  59.2949098  70.4019837
  38.0605517  59.4426956  69.6340657  31.2408903  54.6139349  72.6449263
  31.4002390  53.8582673  73.0500985  31.0601796  55.1630288  73.2990001
  31.2374262  54.5833162  72.8011969  39.1829206  46.7800584  73.2000053
  38.6869767  46.9764258  72.5091620  39.9398268  47.1793253  73.0288855
  39.2216030  46.8678318  73.0720190  36.4532085  50.4542930  69.7903364
  36.4774573  49.9203042  69.1016143  36.7043559  49.9460239  70.4528954
  36.4942004  50.3003834  69.7868008  23.9639675  57.7374425  69.2246508
  23.8583124  57.6921269  68.3598592  23.2139895  58.0828206  69.5060792
  23.8375278  57.7815333  69.1383837  32.7333408  49.1813748  69.1709108
  32.7731779  49.6822955  69.8843815  31.9083072  49.2724142  68.9015031
  32.6172934  49.2695565  69.2359646  34.9163021  58.7474488  77.2729402
  34.0658651  58.8846203  77.4087047  35.0791148  58.0138267  77.7177104
  34.8146884  58.6588590  77.3585002  34.1547771  55.6974258  71.4683007
  33.3239701  55.8648076  71.2618255  34.0999288  55.3210209  72.2531892
  34.0237186  55.6663990  71.5531535  31.9631554  49.1883151  77.1039418
  32.5884258  48.6445284  77.3768850  31.5082034  48.7078069  76.5347208
  31.9879815  49.0372633  77.0601011  45.5366603  57.3712438  72.1952066
  46.1284443  58.0109689  72.2270264  45.9725598  56.6735475  72.4844132
  45.6885034  57.3630789  72.2432898  37.3659993  61.7929811  72.8209959
  36.8585084  62.3465657  73.2650590  37.0686639  61.8538100  72.0028734
  37.2464878  61.8836122  72.7658416  39.5322175  50.1583130  71.6634622
  39.9577247  49.7055657  71.0518149  38.9179168  49.6043201  71.9399410
  39.5050820  50.0097106  71.6139648  39.9767773  65.7093068  60.7513903
  39.2597083  65.5353931  60.2861140  40.6274511  65.4745641  60.2189389
  39.9669624  65.6488861  60.6043121  37.9716398  46.6298230  65.0725199
  37.3284716  46.4795876  65.6410338  37.6315805  46.3840575  64.3074304
  37.8261475  46.5710352  65.0428215  36.6102478  66.7254369  69.7266966
  36.3868133  65.9673198  70.0950993  36.1212321  66.7552390  69.0047406
  36.5045927  66.6176593  69.6743707  42.7243872  51.0413540  67.4045581
  43.0771482  50.6143263  68.0791380  41.8658673  50.9564384  67.5346658
  42.6493316  50.9658281  67.5240592  40.7227138  54.3048909  71.3530424
  40.7025065  54.1232204  72.2065202  40.7706338  55.1760928  71.3290007
  40.7261779  54.4065447  71.4753718  38.6673468  60.8936101  77.2778900
  38.6269322  60.2485778  76.6924056  39.4796786  60.8372718  77.5904312
  38.7816621  60.7895068  77.2375849  35.2580935  66.9454827  67.1804051
  34.8441334  66.2828957  66.7907893  35.9428309  67.0932686  66.6599745
  35.2979307  66.8695485  67.0460548  38.6246229  66.1044912  67.9327668
  38.2262512  66.2147183  67.1648488  38.0097449  66.3126979  68.5154227
  38.4745118  66.1518480  67.9058967  44.1567932  46.1631952  68.3329894
  43.6498797  45.4561092  68.2651071  44.9535366  45.8325141  68.4630970
  44.1995171  46.0105104  68.3428889  40.0731948  52.6698565  64.2303557
  39.8445641  52.6931266  63.3881916  40.3330024  51.8456032  64.3498568
  40.0778136  52.5514644  64.1228755  34.3551176  54.5233038  73.8328658
  33.8430079  53.9154221  74.1913689  34.1830672  55.2389630  74.3002633
  34.2540813  54.5396337  73.9544881  29.2016891  52.9670613  76.4831019
  29.0319481  53.6271988  75.9379226  28.7582841  53.1777174  77.2043509
  29.1116225  53.0956595  76.5092649  33.1276710  51.2075111  65.5257753
  33.6034077  51.5692191  64.8907934  32.6265310  51.8631578  65.8057896
  33.1242069  51.3569300  65.4734494  38.2320247  52.4457282  76.2730913
  38.7891677  52.2171092  75.6409379  37.9081312  53.2062948  75.9966126
  38.2666657  52.5241119  76.1387410  26.1018955  55.8717478  71.7419509
  25.5545675  55.2018124  71.8600378  26.8911334  55.5047326  71.8062977
  26.1371139  55.7182465  71.7688210  35.9503364  55.5324936  77.2382920
  36.7014691  55.8476612  77.5522475  36.1425940  55.3304106  76.4116842
  36.0894778  55.5492317  77.1626316  42.7988654  51.6598502  64.4806716
  42.7982880  51.5047158  65.3390992  42.5944834  52.5061489  64.4248101
  42.7688432  51.7619123  64.5994655  24.8605925  55.0838286  68.8965532
  24.6827686  54.6314895  69.6220448  24.5724947  55.8864448  69.0804010
  24.7918878  55.1360844  69.0309035  26.5978395  57.6166010  66.0087291
  25.7323914  57.6051700  65.8970063  26.6977211  57.4296233  66.8558431
  26.4852562  57.5872071  66.1176236  42.5881325  59.0899691  70.8220051
  43.0136396  58.5674113  70.2690476  42.2238245  59.6880529  70.3008674
  42.5967927  59.1009918  70.6629061  32.2235405  67.3863909  69.5817397
  32.5381964  68.2000297  69.5895179  32.6328818  67.0014127  70.2499556
  32.3303503  67.4492611  69.6821489  39.1759924  62.8033955  67.1521209
  39.6471103  63.5174218  67.3211194  39.5120103  62.2032706  67.6881078
  39.2955039  62.8205420  67.2553585  41.2636909  64.4135269  79.3313281
  41.3733874  63.6243829  79.6870028  41.5927806  64.3241205  78.5287619
  41.3289315  64.2841122  79.2655672  36.0929419  47.5761426  74.1079304
  36.2257325  46.7792419  74.4360279  36.4774572  48.1027829  74.6877579
  36.1685748  47.5361343  74.2422807  39.8133871  62.5951890  73.9148902
  39.2654817  61.9709773  73.6468967  40.2746899  62.7846162  73.1992981
  39.8001080  62.5310940  73.7699333  39.1661774  44.4991752  70.7060397
  38.3607738  44.3889482  71.0228235  39.0368510  44.6004208  69.8490263
  39.0281907  44.4975422  70.6268437  42.6227735  50.6637244  71.3000094
  42.0390724  51.1646451  70.8877661  42.9432029  50.1566800  70.6664417
  42.5840910  50.6629079  71.1458601  33.7517866  47.5720601  72.3557197
  34.2962279  47.2311728  72.9461539  33.8054802  48.4306063  72.4978482
  33.8406985  47.6475860  72.4639071  29.5648425  61.3337017  69.2296005
  30.1693282  61.2932851  68.6009826  29.3575737  62.1808169  69.2600061
  29.6237322  61.4525020  69.1412122  39.3792197  63.6002962  70.4458243
  40.1990571  63.4565928  70.7074538  39.0986275  64.2249161  70.9874681
  39.4588940  63.6713314  70.5646182  24.7999707  60.3171635  69.0994928
  24.7023985  59.5067906  69.4084985  25.5828577  60.2963428  68.7141197
  24.9015844  60.1938725  69.0881791  55.8505847  71.2567814  63.4101119
  55.8199852  72.1112451  63.5819389  56.4487196  70.9563107  63.9687263
  55.9343005  71.3384311  63.5175921  49.0505532  70.3443465  68.1654050
  48.1943428  70.5051963  68.2163166  49.0973186  69.4735529  68.1859111
  48.9304644  70.2394267  68.1760116  43.4346672  79.8806183  63.9291281
  42.6829571  79.5021721  63.7007326  43.8832684  79.9124616  63.1810091
  43.3896339  79.8291790  63.7848783  48.8871632  80.3031552  59.3576828
  48.5523000  80.9808474  58.9221050  49.3998502  79.9136864  58.7693700
  48.9137213  80.3456131  59.2063620  48.4275923  82.2545821  65.2987940
  48.8115302  82.8232720  64.7592715  48.3635064  81.5295331  64.8193756
  48.4749350  82.2321284  65.1481802  45.0131428  79.8924575  66.1954054
  45.1141791  79.0824929  66.5051181  44.4173173  79.7981521  65.5653732
  44.9403967  79.7589603  66.1480292  53.6722422  73.8320116  61.6819429
  53.5561948  74.5827802  62.1111567  54.4678309  73.5744069  61.9315516
  53.7727011  73.9054963  61.7823521  38.2096472  75.9144862  65.8206387
  37.9746657  75.0812514  65.7138656  38.3482113  76.1949527  65.0067588
  38.1952135  75.8328365  65.6848742  40.5086560  68.0830592  68.7190695
  39.8891591  67.4923239  68.5500710  40.4070423  68.6742027  68.0855018
  40.4024235  68.0834675  68.5995685  45.5552747  77.8214139  62.9688771
  45.8768588  78.3619346  62.3650079  46.2024844  77.2510910  63.1011061
  45.6978803  77.8173314  62.8995807  47.6054455  69.8230134  63.0523158
  48.3034620  70.0018261  63.5444621  47.9206788  69.3000473  62.4293547
  47.7549793  69.7723906  63.0325168  40.2355693  71.6282874  70.9634264
  40.1114390  72.2145319  71.5984083  40.8873977  71.1343070  71.2646539
  40.3129342  71.6421678  71.1020193  47.7942391  76.2100579  63.0402950
  48.2336026  75.6017679  63.4857722  47.6447054  75.8307952  62.2688415
  47.8363857  76.0639050  62.9922117  45.2614034  74.8044591  70.2421775
  45.9063036  74.3117034  69.9232724  45.5015811  74.9469377  71.0687853
  45.3924619  74.7522033  70.3171308  45.7781319  65.1922531  67.1344433
  45.4484649  65.6433674  66.4648131  45.1026321  65.1138694  67.6817439
  45.6291755  65.2473666  67.1167656  51.3951727  74.5627760  59.9933719
  51.3103022  75.4188727  60.1383288  51.8836111  74.2872084  60.6615878
  51.4540625  74.6485082  60.1135800  52.9857727  61.1808053  65.3794043
  52.6711168  61.8711532  65.8114466  52.4684668  61.1252836  64.6779544
  52.8622197  61.2742942  65.3390992  52.3270161  71.1812554  61.4931454
  51.7981632  71.3972188  62.1528760  52.8495181  71.8748693  61.4132423
  52.3258614  71.3155691  61.5787053  44.2169768  75.0775771  60.2938922
  43.6326984  75.5825803  60.7004786  43.8139864  74.8518158  59.5535514
  44.0709072  75.1184019  60.2443947  39.7713797  80.7930532  67.0962593
  39.2881375  81.5181022  67.0722177  40.5837115  81.0906662  67.2072751
  39.8204545  80.9432886  67.1089873  48.6746983  71.3241423  58.7707842
  48.9142987  71.5319407  57.9583186  48.9962824  70.5198932  58.8796787
  48.7584141  71.2355524  58.6668396  43.9837273  63.2534819  62.6167380
  44.7383241  63.6213136  62.3784431  43.8064808  63.6274373  63.3846560
  44.0691751  63.3633007  62.6952269  42.6257994  81.3086708  67.2482873
  43.3278574  80.7938697  67.3055630  42.5455477  81.6360860  68.0529748
  42.7181755  81.2800934  67.3755665  42.3394338  65.6605138  59.3145493
  42.1569911  65.8777019  58.4886486  43.2019951  65.7744151  59.3704108
  42.4398927  65.7095036  59.1999980  41.9508770  77.4993060  66.7568481
  42.7897669  77.7315993  66.8042243  41.9820539  76.6297372  66.6875517
  42.0790487  77.4050007  66.7533126  48.0194057  62.6631549  62.3494517
  48.7480217  62.4847504  61.9032673  48.1088950  63.5049628  62.5601695
  48.1400719  62.7615427  62.3148035  52.0002358  73.5984936  66.2526811
  52.7559873  74.0316450  66.2915720  52.1064682  72.9489706  66.8261447
  52.1272528  73.5662420  66.3424837  37.9798618  74.1394226  71.2116208
  37.7137033  73.3233343  71.3707199  37.9937182  74.1847382  70.3411724
  37.9423340  74.0251131  71.1069690  54.9580012  64.4672041  69.2458642
  55.6005920  64.5370146  69.8320557  55.2103032  63.8001264  68.7438184
  55.0902144  64.3798390  69.2585921  41.8856365  68.9379311  57.8267966
  41.1714542  68.6517490  58.2390399  42.3700333  69.2775936  58.4674354
  41.8515728  68.9460960  57.9823601  42.7297224  67.6772605  73.8583216
  42.0369021  67.2069584  74.1043948  43.3457552  67.4510909  74.4324923
  42.7181754  67.5739736  73.9792369  58.1726875  74.1439133  65.8948851
  58.8343309  73.5829802  65.7944760  57.5318287  73.6491164  66.2201543
  58.1755742  73.9875542  65.9281192  49.0603683  77.4409265  58.2029775
  49.4754831  77.1094288  57.5114270  48.2295612  77.2078167  58.0749911
  48.9991691  77.3580521  58.0820622  38.3892031  74.9253006  68.4927953
  38.2067605  74.8999892  67.6400245  39.1241700  75.3951943  68.5316861
  38.4706095  74.9914368  68.3725871  54.4591706  75.1604516  65.6360840
  54.6947295  75.3049714  64.8087691  54.6081269  75.9246924  66.0292354
  54.5157509  75.2943570  65.5724444  56.2882162  74.0006182  63.4730444
  56.6190379  74.5333822  62.8670539  56.8615250  74.0545069  64.1292395
  56.4215842  74.0875750  63.4808226  51.5014052  71.8471084  64.1554024
  51.5960906  72.5860378  64.6093650  50.8772895  71.4188560  64.5888589
  51.4223082  71.8932405  64.2862172  38.3562942  71.8046506  68.6427019
  38.9336444  71.6682957  69.2819265  37.6577004  71.3482290  68.8972604
  38.3383963  71.7168773  68.7749309  51.7537073  73.6919824  57.3890976
  51.6717235  73.7622011  58.2545963  52.3916793  74.2549568  57.1974717
  51.8356910  73.7858795  57.4880926  45.1130244  73.4580562  66.8565502
  44.8549488  72.6252297  66.8296802  45.1678727  73.6838175  66.0158003
  45.0830022  73.3678333  66.7285639  50.1931294  65.5609013  66.9569595
  49.4887621  65.0718198  67.1153514  50.2416268  65.5731487  66.0858040
  50.0961346  65.4898661  66.8508935  44.0864956  71.0118324  67.3430397
  43.5114547  71.1710493  67.9794358  43.7100632  70.3753734  66.8798848
  43.9467768  70.9416137  67.3684956  47.7538245  69.4841674  72.2022776
  47.3652678  69.0595891  71.5474967  47.0892943  69.7323823  72.7099802
  47.5985173  69.4580395  72.1810644  57.3961514  69.2416678  64.9770606
  57.1398079  68.4296620  64.7868488  58.2390828  69.2494246  64.7500793
  57.4827539  69.1228676  64.9155423  33.8321775  70.6558399  65.3574838
  33.9182027  70.2790268  66.1388368  34.4597572  70.2818845  64.8794796
  33.9378326  70.5443881  65.4020315  51.5764606  63.1816302  69.7146760
  51.9575118  62.4994474  70.1014634  50.7727891  62.8925905  69.5322424
  51.5141068  63.0383351  69.7450816  48.8577183  73.7140278  60.3999583
  49.6717822  74.0055171  60.2882354  48.7936324  73.0600141  59.8257876
  48.9679922  73.6605473  60.2988420  44.7285091  77.1861796  65.5271895
  45.3659038  76.9473543  66.0723688  45.1540163  77.3898955  64.7925055
  44.8861258  77.1812806  65.4989052  39.4197734  79.4250132  69.4106198
  39.4601879  79.6964983  68.5825978  39.9792258  79.9492040  69.8263986
  39.5081080  79.5425887  69.3498087  45.3687906  72.4064086  59.8646784
  45.7533059  72.1871792  60.6163329  45.1199527  73.2327031  59.9947860
  45.3889979  72.4962232  59.9947860  47.1106563  77.6634218  67.2065681
  47.1845572  77.5009390  68.0607531  47.9276070  77.8524408  66.9626163
  47.2422922  77.6670961  67.2963707  40.8712320  78.0092081  64.2360124
  40.0450438  78.2553818  64.1094403  40.9324311  77.9304162  65.1022183
  40.7586487  78.0337030  64.3449069  43.0888344  64.0761022  65.1955565
  42.2210769  64.1483622  65.2613174  43.3763548  64.8783101  65.3843540
  43.0028092  64.2055169  65.2330331  52.2121232  64.2238882  73.5266886
  52.9574824  64.0348692  73.1130312  51.7958537  64.7497120  72.9680743
  52.2606207  64.2741027  73.3831460  45.6511149  80.6268961  61.9379154
  45.9409447  80.2357943  61.2138381  46.3814630  80.8085666  62.3784430
  45.8018033  80.5962775  61.8961961  43.5917065  82.6036344  65.0039304
  43.3717360  82.3133699  65.7965971  43.3711587  81.9451299  64.4757216
  43.5264659  82.4636052  65.0428213  42.5034012  74.6909660  67.2695006
  42.2147260  74.0647132  67.8040733  43.3717360  74.6329948  67.3359686
  42.5894264  74.5897205  67.3585960  53.2911910  69.8344444  67.5876988
  52.9476675  69.1134779  67.9384237  53.3904952  69.6258295  66.7455346
  53.2553952  69.6968647  67.5148668  45.7585020  83.9765734  63.7869996
  46.4109078  83.4442176  64.0161022  45.0610629  83.6234386  64.1737870
  45.7515738  83.8455257  63.8782164  42.7066285  76.3304911  63.1937371
  43.4612253  76.7117950  63.4072833  42.1136898  76.7816055  63.6484067
  42.7302999  76.4533739  63.2920249  53.7524939  76.2970148  63.1300976
  54.3182971  76.9563358  63.0459519  53.1052842  76.6419846  63.6017378
  53.7403695  76.4452089  63.1873732  44.0264512  77.5013473  68.5677486
  43.5045265  77.6413764  69.2529351  44.4138532  76.7424137  68.7579603
  44.0068213  77.4098997  68.6978563  41.0155696  67.5519282  62.6372441
  40.7280491  67.1820552  61.9004388  41.7026164  68.0214137  62.3756146
  41.0744593  67.5666251  62.4887517  50.2231517  79.2408932  62.5538055
  49.9818193  78.5076793  62.1465120  50.4032850  79.7895789  61.9004388
  50.2139141  79.2131323  62.3968278  45.4530837  74.5317492  63.9658977
  45.2573620  75.1392226  63.3719280  45.6765183  73.8385436  63.4850651
  45.4565478  74.5195017  63.8075058  43.8509367  71.4172230  64.0839846
  44.5732019  71.5813388  63.6243652  43.3717360  72.1381895  63.9779185
  43.8873098  71.5470459  64.0005460  51.8102875  67.7536029  69.4636530
  50.9713976  67.7797307  69.2274794  51.8807242  68.4006764  70.0441877
  51.6971268  67.8532154  69.5145647  41.5016984  73.8230302  73.1893985
  42.0138081  74.1014555  72.5402745  41.2153327  74.5619596  73.5556798
  41.5351847  73.9732656  73.1483863  50.2572153  64.6521406  64.1964146
  50.9598506  64.4529154  63.7184105  49.9916342  63.8797348  64.5032990
  50.3218786  64.5084372  64.1709588  55.6860399  72.9604015  66.7497772
  55.5994373  73.1159441  67.6032551  55.2310879  73.6042091  66.3757177
  55.6063655  73.0779770  66.8204879  38.5883890  68.3300494  63.4857722
  38.6900027  69.1326655  63.8138697  39.3839777  68.1287830  63.1880802
  38.7211796  68.4186393  63.4893077  45.0200709  65.9156691  73.2495027
  44.8283906  65.9311825  74.0994451  45.8699305  66.1120365  73.2261682
  45.1176431  65.9471042  73.3718322  39.4047622  68.4447672  71.2278843
  39.2633114  67.5931613  71.3523351  39.6888186  68.4876333  70.4041049
  39.4255469  68.3247422  71.1246468  49.5586215  70.2814762  65.3723332
  49.3120929  70.2010513  66.2060121  49.8871338  69.4968230  65.1785859
  49.5707458  70.1541028  65.4670855  54.9487636  76.3476376  59.9226612
  54.5694445  75.5613513  59.9155902  54.2853882  76.8963233  59.7798256
  54.7946111  76.3121199  59.9007409  47.9304936  66.1112200  73.4566850
  48.3877551  66.8436174  73.5839642  48.0061265  65.6878665  74.2154106
  48.0095906  66.1569438  73.5867927  40.1737928  66.3578020  74.5456294
  39.6380117  65.7458378  74.8617061  40.2355692  66.9326156  75.1989960
  40.1033560  66.3524948  74.6891721  52.4032262  59.2902075  67.3260693
  52.5215831  59.7478539  66.5927996  52.2294438  58.4847336  67.0396911
  52.3951433  59.2395847  67.1761627  47.7734545  79.8989895  63.7615438
  48.5384436  79.6299538  63.4398103  47.6712635  79.4139905  64.4785501
  47.8716040  79.7879459  63.8195266  45.8087314  68.1014304  70.3008674
  45.0183389  67.9205764  70.6226010  46.2047937  67.3241257  70.2838969
  45.7504191  67.9601765  70.3461223  50.2953205  76.9302078  55.7415388
  51.0626190  76.9902203  55.3321240  49.8484514  76.3582520  55.2571706
  50.3426632  76.8538654  55.6093098  51.1931001  75.7356734  68.0268120
  50.5176003  75.5041966  68.5281507  51.2023377  75.1277917  67.4010225
  51.0949505  75.6115659  68.0084272  53.1947735  78.5921867  60.2578298
  53.2767573  79.3988853  59.9339749  53.6797477  78.6117826  60.9819072
  53.2784893  78.7142529  60.3165197  47.0044239  73.2706702  68.9248376
  46.5806488  73.4711202  68.1887394  46.8289094  72.4235550  69.0372676
  46.9155119  73.1755484  68.8322066  42.2926684  73.7658754  64.3576349
  42.4491303  73.7005557  65.2132341  42.6327277  74.5407306  64.1455028
  42.3659918  73.8707952  64.4530943  48.8305828  73.1416637  63.2269712
  49.3721374  72.6387019  63.6908332  49.1452387  73.0881832  62.4159197
  48.9570225  73.0596058  63.1753524  46.9992278  78.5333989  60.5109740
  47.0685098  77.6748527  60.6502740  47.7780733  78.7505870  60.1828764
  47.1245128  78.4386853  60.4826897  49.9795098  68.0352942  73.2792012
  50.1937067  67.3963856  72.7255366  49.3628997  68.4798766  72.8499874
  49.9200427  68.0063086  73.1342443  51.3899765  80.9571690  64.7246233
  50.9979557  80.6538405  64.0069099  51.5452838  81.7940780  64.5351187
  51.3553355  81.0355527  64.5902730  38.8660945  70.9493704  64.6737116
  39.2459910  71.3678249  64.0097383  38.2916310  71.5307160  64.9805959
  38.8372270  71.0971563  64.6213857  51.5539440  77.5221679  64.6652264
  51.1954095  77.6936322  65.4416296  51.0678151  77.9834885  64.1080262
  51.4298137  77.6160650  64.6977533  49.3709826  61.1452878  68.2679355
  48.5003384  61.1191599  68.2212664  49.6250167  60.9730070  67.4505201
  49.2803386  61.1163021  68.1399492  46.3427806  73.2020845  57.2052498
  46.6320330  73.9785727  57.4796072  46.4299604  72.6909576  57.9066997
  46.3982062  73.2412763  57.3494996  46.3958967  63.1559106  69.7252825
  45.8797455  62.4639298  69.8504404  45.8352896  63.8229883  69.6715424
  46.2365480  63.1522364  69.7358891  48.4651200  63.6952066  71.5545678
  48.0782953  63.7201098  72.3359208  47.9784137  63.1293745  71.1020195
  48.3363709  63.6147817  71.6033582  54.4401180  70.2614721  70.1785380
  54.0128788  70.1741070  69.4233480  53.8027233  70.3692497  70.7640224
  54.2830787  70.2647381  70.1530822  48.1308342  60.5819052  73.8455938
  48.7601460  61.1179352  73.5677008  48.2994205  60.4896411  74.6969504
  48.2486136  60.6480414  73.9304466  42.5091747  72.5154109  69.3052610
  41.6679753  72.4157983  69.5131504  42.7181755  73.2849589  69.6566931
  42.4156439  72.6146152  69.3879925  39.9867314  70.1373646  67.1337361
  39.5924011  70.2116658  66.3587470  39.4307430  70.5231592  67.6845723
  39.8470126  70.2055421  67.1005021  51.6232260  63.1154940  66.8141240
  51.8281854  63.0477248  67.6598237  51.2958684  63.9213761  66.7462417
  51.6047508  63.2240881  66.9300895  46.3208411  70.4435508  68.5550208
  46.0171549  69.8891497  69.1560615  45.6187832  70.6227718  68.0678242
  46.1724621  70.3880291  68.5719913  45.3774509  67.7536028  63.1194909
  45.6534243  67.0354941  62.7072477  45.9773178  68.3520948  62.9116016
  45.5067773  67.7356399  63.0275671  54.8765948  63.6686704  66.2944005
  54.2640262  64.1557106  66.6797737  54.9730123  62.9930195  66.8381656
  54.8003846  63.6405013  66.4322863  48.8785029  65.4249545  61.3941504
  49.3328776  65.5960106  62.1189349  49.3525075  64.8117656  60.9939280
  49.0153349  65.3600431  61.4415266  42.4000554  74.9097871  70.7244243
  41.8088488  75.5507370  70.6947258  43.1621578  75.3335489  70.6975542
  42.4248815  75.0673710  70.7159390  42.7961177  66.0699869  71.3912261
  43.2562659  66.1438799  72.1287384  42.8417284  66.8681123  71.0412082
  42.8711733  66.1994016  71.4485017  46.2198049  72.1292080  62.4986512
  46.9640094  72.5166356  62.7369462  46.3658745  71.2849505  62.6627000
  46.3508634  72.0622553  62.5580481  48.1377625  63.9242339  67.5318373
  47.2913670  64.0965147  67.4059723  48.1348757  63.1191682  67.8684201
  48.0124774  63.8303368  67.5629500  49.2075925  67.7017553  68.3980431
  48.7335879  67.1759315  68.9085742  49.5794061  67.1547026  67.8295293
  49.1925814  67.5433550  68.3895578  39.5848955  69.6989060  73.7663977
  40.4474568  69.5984769  73.6801307  39.2540738  69.1183769  73.2049549
  39.6634151  69.5980687  73.6709383  51.1359425  68.5954108  61.4606185
  50.6082443  68.6782852  60.7711894  51.5955133  69.3371979  61.4570830
  51.1261275  68.7174770  61.3580880  57.4717842  69.5421386  67.7616471
  57.2327612  69.5017220  66.9237255  57.6351744  70.3892538  67.8882192
  57.4608146  69.6613471  67.6569953  42.9450741  68.5231509  70.4274395
  42.3203811  68.5349901  69.8200348  42.6096336  68.9991684  71.0765635
  42.8036233  68.5950026  70.4330964  39.6576417  76.5831969  71.8678159
  39.1276341  75.8924408  71.9173134  39.9301510  76.5742154  71.0390868
  39.6201139  76.4799101  71.7525575  50.6896507  77.1657671  60.5915842
  51.4130706  77.6315784  60.4480415  50.2497098  77.2331281  59.8413439
  50.7312199  77.2441508  60.4600623  42.2141486  70.1324657  72.6449263
  42.3734973  69.3767981  73.0500985  42.0334380  70.6815596  73.2990001
  42.2106845  70.1018470  72.8011969  50.1561789  62.2985892  73.2000053
  49.6602351  62.4949566  72.5091620  50.9130851  62.6978560  73.0288855
  50.1948614  62.3863626  73.0720190  47.4264669  65.9728238  69.7903364
  47.4507156  65.4388350  69.1016143  47.6776143  65.4645547  70.4528954
  47.4674588  65.8189142  69.7868008  34.9372259  73.2559733  69.2246508
  34.8315708  73.2106577  68.3598592  34.1872479  73.6013514  69.5060792
  34.8107862  73.3000641  69.1383837  43.7065991  64.6999056  69.1709108
  43.7464363  65.2008263  69.8843815  42.8815656  64.7909450  68.9015031
  43.5905517  64.7880873  69.2359646  45.1280355  71.2159566  71.4683007
  44.2972284  71.3833384  71.2618255  45.0731872  70.8395517  72.2531892
  44.9969769  71.1849297  71.5531535  42.9364138  64.7068459  77.1039418
  43.5616841  64.1630592  77.3768850  42.4814618  64.2263377  76.5347208
  42.9612398  64.5557940  77.0601011  43.5016398  69.4915158  61.9973125
  43.6419359  69.9887622  62.7001766  43.9998931  68.7901452  62.1387338
  43.5957479  69.4617136  62.1224704  43.5316621  70.3582269  59.3265701
  44.1661700  70.9542694  59.2615163  43.6142232  70.0585726  60.1411572
  43.6373172  70.4023177  59.4368788  45.1095604  66.2896244  59.3011143
  45.4311445  65.8099327  58.6470406  45.3722547  67.0995890  59.1101955
  45.1961629  66.3386142  59.1766635  50.5054759  65.6768438  71.6634622
  50.9309830  65.2240965  71.0518149  49.8911752  65.1228509  71.9399410
  50.4783404  65.5282414  71.6139648  40.0369609  72.5550109  62.5955247
  40.5461838  73.1514617  62.9766553  40.5103881  72.2876083  61.9131667
  40.1812984  72.6035925  62.5509770  50.9500357  81.2278376  60.7513903
  50.2329666  81.0539238  60.2861140  51.6007094  80.9930948  60.2189389
  50.9402207  81.1674169  60.6043121  48.9448981  62.1483538  65.0725199
  48.3017299  61.9981184  65.6410338  48.6048388  61.9025883  64.3074304
  48.7994059  62.0895660  65.0428215  53.5348328  70.1042965  64.4955208
  52.8639518  70.6472667  64.3668274  54.2288078  70.5737820  64.2536903
  53.5377195  70.2541236  64.4410736  53.6976455  66.5598848  67.4045581
  54.0504066  66.1328571  68.0791380  52.8391257  66.4749692  67.5346658
  53.6225900  66.4843589  67.5240592  51.6959721  69.8234217  71.3530424
  51.6757649  69.6417512  72.2065202  51.7438922  70.6946235  71.3290007
  51.6994362  69.9250755  71.4753718  48.1706715  68.2304368  60.8001807
  47.5771554  68.5521364  60.2486374  48.2081992  67.3845463  60.5922913
  48.0881104  68.1528696  60.6884579  55.1300516  61.6817260  68.3329894
  54.6231380  60.9746400  68.2651071  55.9267949  61.3510449  68.4630970
  55.1727755  61.5290412  68.3428889  51.0464531  68.1883872  64.2303557
  50.8178224  68.2116574  63.3881916  51.3062608  67.3641339  64.3498568
  51.0510719  68.0699952  64.1228755  40.1749475  68.4855921  76.4831019
  40.0052065  69.1457296  75.9379226  39.7315424  68.6962482  77.2043509
  40.0848808  68.6141903  76.5092649  44.1009294  66.7260419  65.5257753
  44.5766660  67.0877499  64.8907934  43.5997894  67.3816886  65.8057896
  44.0974653  66.8754608  65.4734494  57.3320655  76.1982187  61.3170758
  57.7154261  76.9473543  61.5468855  56.5364769  76.4448007  61.0582747
  57.2714438  76.3451881  61.3128332  37.0751539  71.3902786  71.7419509
  36.5278258  70.7203432  71.8600378  37.8643917  71.0232634  71.8062977
  37.1103723  71.2367773  71.7688210  46.1435947  68.8701619  58.8931137
  46.5234912  68.8881248  58.1082252  45.4028543  69.3155607  58.7721984
  46.0904785  68.9383393  58.7594705  53.7721238  67.1783810  64.4806716
  53.7715464  67.0232466  65.3390992  53.5677418  68.0246797  64.4248101
  53.7421015  67.2804431  64.5994655  35.8338509  70.6023594  68.8965532
  35.6560270  70.1500203  69.6220448  35.5457531  71.4049756  69.0804010
  35.7651462  70.6546152  69.0309035  51.4962090  71.8581312  68.1342923
  51.9915755  71.1404307  68.0946943  50.6861865  71.5552109  68.0197410
  51.4505983  71.7078958  68.1116649  46.9420701  75.7079125  60.2839927
  46.1332024  75.3845798  60.2373237  47.4495610  75.0012347  60.2168176
  46.8970368  75.5560441  60.2670222  37.5710978  73.1351318  66.0087291
  36.7056498  73.1237008  65.8970063  37.6709794  72.9481541  66.8558431
  37.4585145  73.1057379  66.1176236  47.0662003  63.0946734  74.1079304
  47.1989908  62.2977727  74.4360279  47.4507156  63.6213137  74.6877579
  47.1418332  63.0546651  74.2422807  50.1394358  60.0177060  70.7060397
  49.3340322  59.9074790  71.0228235  50.0101094  60.1189516  69.8490263
  50.0014491  60.0160730  70.6268437  53.5960319  66.1822552  71.3000094
  53.0123307  66.6831758  70.8877661  53.9164613  65.6752108  70.6664417
  53.5573494  66.1814387  71.1458601  46.1355118  65.0963147  61.5758769
  46.9570812  65.2661460  61.3340464  45.6724769  65.2510408  60.8525066
  46.1886280  65.1444880  61.4330413  44.7250450  63.0905909  72.3557197
  45.2694863  62.7497036  72.9461539  44.7787385  63.9491371  72.4978482
  44.8139569  63.1661168  72.4639071  40.5381008  76.8522325  69.2296005
  41.1425866  76.8118159  68.6009826  40.3308321  77.6993477  69.2600061
  40.5969906  76.9710328  69.1412122  35.7732291  75.8356943  69.0994928
  35.6756569  75.0253214  69.4084985  36.5561160  75.8148736  68.7141197
  35.8748427  75.7124033  69.0881791  59.6479566  86.8426731  58.7707842
  59.8875570  87.0504715  57.9583186  59.9695407  86.0384240  58.8796787
  59.7316724  86.7540832  58.6668396  54.9569857  78.7720127  62.6167380
  55.7115825  79.1398444  62.3784431  54.7797391  79.1459681  63.3846560
  55.0424335  78.8818315  62.6952269  53.3126921  81.1790446  59.3145493
  53.1302495  81.3962327  58.4886486  54.1752534  81.2929459  59.3704108
  53.4131511  81.2280344  59.1999980  58.9926641  78.1816857  62.3494517
  59.7212801  78.0032812  61.9032673  59.0821533  79.0234936  62.5601695
  59.1133303  78.2800735  62.3148035  52.8588948  84.4564619  57.8267966
  52.1447125  84.1702798  58.2390399  53.3432917  84.7961244  58.4674354
  52.8248312  84.4646268  57.9823601  51.9888279  83.0704589  62.6372441
  51.7013075  82.7005860  61.9004388  52.6758748  83.5399445  62.3756146
  52.0477177  83.0851559  62.4887517  49.5616474  83.8485802  63.4857722
  49.6632610  84.6511963  63.8138697  50.3572361  83.6473138  63.1880802
  49.6944380  83.9371701  63.4893077  54.1025073  82.3841935  56.4847080
  53.7537878  83.0361660  56.9478629  53.6221519  82.3699048  55.7570951
  53.9795317  82.4784989  56.4458171  54.5049204  85.8767577  59.3265701
  55.1394284  86.4728002  59.2615163  54.5874815  85.5771034  60.1411572
  54.6105755  85.9208485  59.4368788  56.0828187  81.8081552  59.3011143
  56.4044028  81.3284635  58.6470406  56.3455131  82.6181198  59.1101955
  56.1694213  81.8571450  59.1766635  59.1439298  83.7489676  60.8001807
  58.5504138  84.0706672  60.2486374  59.1814576  82.9030771  60.5922913
  59.0613687  83.6714004  60.6884579  57.1168531  84.3886926  58.8931137
  57.4967495  84.4066556  58.1082252  56.3761127  84.8340915  58.7721984
  57.0637368  84.4568701  58.7594705  57.1087701  80.6148455  61.5758769
  57.9303396  80.7846768  61.3340464  56.6457352  80.7695716  60.8525066
  57.1618864  80.6630188  61.4330413  22.6258921   1.6390021  50.3441166
  22.5952925   2.4934658  50.5159435  23.2240269   1.3385314  50.9027310
  22.7096078   1.7206518  50.4515968  10.2099745  10.2628390  50.8631328
   9.4582645   9.8843929  50.6347373  10.6585757  10.2946824  50.1150138
  10.1649412  10.2113997  50.7188830  15.6624705  10.6853760  46.2916875
  15.3276073  11.3630681  45.8561097  16.1751575  10.2959071  45.7033747
  15.6890286  10.7278338  46.1403666  15.2028996  12.6368028  52.2327987
  15.5868376  13.2054927  51.6932762  15.1388138  11.9117539  51.7533803
  15.2502424  12.6143492  52.0821849  18.6710426   2.7857716  57.7425748
  19.2166386   3.4642803  57.8019718  18.6127303   2.6445177  56.8827330
  18.7426341   2.8649718  57.6237809  11.7884501  10.2746782  53.1294100
  11.8894864   9.4647136  53.4391228  11.1926247  10.1803729  52.4993779
  11.7157040  10.1411810  53.0820339  20.4475495   4.2142323  48.6159476
  20.3315021   4.9650009  49.0451614  21.2431382   3.9566277  48.8655563
  20.5480085   4.2877170  48.7163567  11.6285241  15.1924372  54.5308956
  12.2722696  15.6337536  54.9205115  11.9541496  14.3877798  54.4439215
  11.7717070  15.1389566  54.5754434  12.3305821   8.2036346  49.9028818
  12.6521662   8.7441554  49.2990126  12.9777917   7.6333118  50.0351108
  12.4731876   8.1995522  49.8335854  14.5695464   6.5922786  49.9742996
  15.0089100   5.9839887  50.4197769  14.4200127   6.2130160  49.2028461
  14.6116930   6.4461257  49.9262164  12.0367107   5.1866798  57.1761822
  12.6816110   4.6939241  56.8572770  12.2768884   5.3291585  58.0027900
  12.1677692   5.1344240  57.2511355  14.5753198   8.0321704  56.8268714
  14.8576441   7.2373110  56.6055470  15.3039359   8.5102292  56.8473775
  14.7242762   7.9856301  56.7971730  18.1704801   4.9449968  46.9273766
  18.0856096   5.8010934  47.0723334  18.6589184   4.6694292  47.5955925
  18.2293698   5.0307289  47.0475847  19.1023234   1.5634762  48.4271501
  18.5734705   1.7794395  49.0868807  19.6248254   2.2570900  48.3472470
  19.1011687   1.6977899  48.5127100  24.5571287   7.1381066  53.8004545
  23.7268990   7.3491710  53.9637962  24.5080539   6.3118121  53.5246829
  24.4278022   7.0470673  53.7841911   6.5466870  11.1752740  54.0302640
   6.0634448  11.9003229  54.0062224   7.3590189  11.4728870  54.1412798
   6.5957618  11.3255093  54.0429919  12.6181024   9.9684920  56.6352455
  12.1007966   9.6092335  56.0313763  13.3155416   9.4447095  56.6458521
  12.6446605   9.8382608  56.5482713  16.2744616  10.4179735  62.5968628
  16.3627962  10.2305875  63.4446838  16.7034329   9.7717164  62.1973475
  16.3506719  10.2942742  62.6640379  13.8415076   9.7010894  61.5786290
  13.2785911   9.2883504  62.1025951  14.6036100   9.6263800  61.9979433
  13.8709525   9.6288295  61.7179290   9.4011068  11.6908916  54.1822920
  10.1031647  11.1760905  54.2395677   9.3208551  12.0183067  54.9869795
   9.4934828  11.6623142  54.3095712  24.0525245  -0.2148533  57.5954967
  23.2153666  -0.1446346  57.8302561  24.0213476  -0.2124038  56.7229269
  23.9243527  -0.2038306  57.5014515   8.7261843   7.8815268  53.6908528
   9.5650742   8.1138200  53.7382290   8.7573612   7.0119579  53.6215564
   8.8543561   7.7872214  53.6873173   9.3514546   8.3016143  57.9921834
   9.8912771   8.1587274  58.6625206   8.6684492   8.7012894  58.3605860
   9.3306700   8.3395814  58.1456255  18.7755431   3.9807143  53.1866858
  19.5312946   4.4138658  53.2255767  18.8817755   3.3311913  53.7601494
  18.9025601   3.9484627  53.2764884  21.8135602   7.8080421  53.9369261
  21.3770834   7.8117163  54.6928232  21.4798517   8.4885920  53.5048838
  21.6998222   7.9092876  53.9850094  16.5435069  11.7598856  58.9078867
  15.7450315  11.5198356  59.1652736  16.9921080  11.8113248  59.6545915
  16.4909680  11.7321247  59.0563791  24.9479948   4.5261341  52.8288898
  25.6096382   3.9652009  52.7284807  24.3071360   4.0313371  53.1541589
  24.9508816   4.3697750  52.8621238  15.8356756   7.8231472  45.1369821
  16.2507904   7.4916496  44.4454317  15.0048686   7.5900374  45.0089958
  15.7744765   7.7402728  45.0160669  21.2344779   5.5426723  52.5700887
  21.4700368   5.6871922  51.7427738  21.3834343   6.3069131  52.9632401
  21.2910582   5.6765777  52.5064491  23.0635236   4.3828389  50.4070491
  23.3943453   4.9156029  49.8010586  23.6368324   4.4367277  51.0632442
  23.1968915   4.4697958  50.4148273  18.2767125   2.2293292  51.0894071
  18.3713979   2.9682586  51.5433696  17.6525968   1.8010767  51.5228635
  18.1976155   2.2754612  51.2202218  18.5290146   4.0742031  44.3231023
  18.4470309   4.1444219  45.1886010  19.1669867   4.6371775  44.1314764
  18.6109983   4.1681003  44.4220972  24.1714587  -0.3761114  51.9110652
  23.9151152  -1.1881173  51.7208535  25.0143901  -0.3683547  51.6840840
  24.2580613  -0.4949117  51.8495470  15.6330256   4.0962486  47.3339629
  16.4470895   4.3877378  47.2222401  15.5689398   3.4422348  46.7597922
  15.7432995   4.0427680  47.2328467  21.8539746   6.7788482  61.7469205
  21.6178384   5.9476547  61.6281266  22.4982975   6.7274089  62.3324049
  21.9134417   6.6486170  61.8155099  11.5038165   7.5684003  52.4611941
  12.1412111   7.3295751  53.0063735  11.9293236   7.7721162  51.7265102
  11.6614331   7.5635013  52.4329099   6.1950807   9.8072340  56.3446245
   6.2354952  10.0787191  55.5166025   6.7545331  10.3314248  56.7604033
   6.2834153   9.9248095  56.2838133  22.8776167   6.5632931  57.8097500
  22.5721984   7.2960987  58.1710815  22.1582383   6.1570860  57.5290286
  22.7263509   6.6114664  57.8210637  13.8859636   8.0456426  54.1405728
  13.9598645   7.8831598  54.9947578  14.7029143   8.2346615  53.8966209
  14.0175995   8.0493168  54.2303753  28.5777959   3.2025931  57.1365844
  28.5102459   3.2221890  56.2668430  28.5633622   4.0456258  57.3621514
  28.5656716   3.3299666  57.0418321   7.6465393   8.3914289  51.1700171
   6.8203511   8.6376026  51.0434450   7.7077384   8.3126369  52.0362229
   7.5339560   8.4159238  51.2789116  12.4264222  11.0091169  48.8719201
  12.7162521  10.6180150  48.1478428  13.1567703  11.1907874  49.3124476
  12.5771106  10.9784983  48.8302008  26.3636577   1.9770317  55.4112438
  26.9144498   1.3438387  55.6509530  26.3480692   2.5085710  56.1027942
  26.4421773   1.9619266  55.5491296  13.0158967   5.8108915  59.9572332
  12.5170661   6.5224682  60.0357220  13.8259192   6.1309581  59.9190494
  13.0615074   5.9635763  59.9628900  10.3670138  12.9858551  51.9379351
  10.1470433  12.6955906  52.7306018  10.1464660  12.3273506  51.4097263
  10.3017732  12.8458260  51.9768260  20.0664983   0.2166651  54.5217034
  19.7229749  -0.5043014  54.8724284  20.1658025   0.0080502  53.6795393
  20.0307026   0.0790854  54.4488714  12.5338093  14.3587941  50.7210043
  13.1862151  13.8264383  50.9501069  11.8363702  14.0056594  51.1077917
  12.5268811  14.2277464  50.8122211   9.4819358   6.7127119  50.1277418
  10.2365326   7.0940158  50.3412880   8.8889971   7.1638262  50.5824114
   9.5056072   6.8355946  50.2260296  20.5278012   6.6792355  50.0641023
  21.0936044   7.3385565  49.9799565  19.8805915   7.0242053  50.5357425
  20.5156768   6.8274297  50.1213779  10.8017585   7.8835680  55.5017533
  10.2798338   8.0235972  56.1869398  11.1891605   7.1246344  55.6919650
  10.7821286   7.7921204  55.6318609  16.9984590   9.6231139  49.4878102
  16.7571266   8.8899000  49.0805167  17.1785923  10.1717996  48.8344435
  16.9892214   9.5953531  49.3308325  12.2283911   4.9139699  50.8999024
  12.0326693   5.5214434  50.3059327  12.4518256   4.2207643  50.4190698
  12.2318552   4.9017225  50.7415105  22.4613472   3.3426223  53.6837819
  22.3747446   3.4981649  54.5372598  22.0063952   3.9864298  53.3097224
  22.3816729   3.4601978  53.7544926  20.2287337   7.3720329  56.0950160
  20.0901696   8.0701375  56.5998902  19.4487335   7.2168986  55.7386342
  20.0930564   7.4520496  56.1176434  11.3664070  11.5896460  58.5847388
  11.5153634  11.0299376  57.9320793  12.1464072  11.6688462  58.9679907
  11.5038164  11.5182026  58.5444338  21.7240710   6.7298583  46.8566659
  21.3447518   5.9435721  46.8495948  21.0606955   7.2785440  46.7138303
  21.5699184   6.6943407  46.8347456  13.8917371  11.7611103  59.8631879
  13.8161042  11.0919914  60.4182668  13.8207230  12.4628891  60.3772546
  13.8697978  11.7656010  60.0208727  14.5487618  10.2812102  50.6955485
  15.3137509  10.0121746  50.3738149  14.4465708   9.7962112  51.4125548
  14.6469113  10.1701667  50.7535313  17.0706278   7.3124286  42.6755435
  17.8379264   7.3724411  42.2661286  16.6237587   6.7404727  42.1911753
  17.1179706   7.2360861  42.5433145  17.9684074   6.1178942  54.9608167
  17.2929076   5.8864174  55.4621554  17.9776450   5.5100124  54.3350272
  17.8702578   5.9937867  54.9424319  19.9700808   8.9744074  47.1918345
  20.0520646   9.7811060  46.8679796  20.4550551   8.9940033  47.9159118
  20.0537966   9.0964736  47.2505243  13.2809005  15.1679423  58.3209880
  13.7704936  14.4690212  58.1385545  12.7093238  14.8703293  58.9085937
  13.2693535  15.0205646  58.3810921  15.6058901   3.5238845  50.1609759
  16.1474447   3.0209226  50.6248379  15.9205460   3.4704040  49.3499244
  15.7323298   3.4418266  50.1093571  13.7745351   8.9156196  47.4449787
  13.8438171   8.0570735  47.5842787  14.5533806   9.1328077  47.1168811
  13.8998201   8.8209060  47.4166944  18.1652839  11.3393898  51.6586280
  17.7732630  11.0360613  50.9409146  18.3205911  12.1762988  51.4691234
  18.1306428  11.4177734  51.5242777  18.3292513   7.9043887  51.5992310
  17.9707168   8.0758529  52.3756343  17.8431224   8.3657092  51.0420309
  18.2051210   7.9982858  51.6317580  19.4897253   8.7947782  62.5459511
  20.1276973   8.3007978  62.2121967  18.8471344   8.7225183  61.9611738
  19.4891479   8.7106791  62.4101866  21.2154253   0.6436928  57.1125427
  20.7881861   0.5563277  56.3573526  20.5780306   0.7514704  57.6980271
  21.0583860   0.6469588  57.0870868  19.5451509   9.4867591  59.1864868
  20.3343888   9.1356655  59.3066950  19.7195107  10.3003979  58.9241502
  19.6871791   9.5553448  59.1652736  25.2944049   5.1225848  58.6561568
  25.3527173   5.5712497  59.4021545  24.6610517   5.5324661  58.2191648
  25.2095344   5.2499583  58.7014116  18.9343144  10.7429390  55.0916314
  18.7362833  11.2320205  54.3972526  18.3130855  10.9470632  55.6700448
  18.8130708  10.8445929  55.0739538  22.2465729   3.1442136  56.7427258
  22.0063952   2.3048551  56.7469685  22.7257736   3.2242303  57.4668032
  22.2817912   3.0323536  56.8502061  24.2470916  -0.0756407  54.6956517
  24.0080686  -0.1160572  53.8577302  24.4104817   0.7714745  54.8222239
  24.2361219   0.0435678  54.5909999  20.8516946   4.3093543  60.6261563
  21.5751145   3.8566069  60.4472583  20.5866908   4.5898208  59.8433890
  20.9198219   4.2844511  60.4840278  17.4649580   7.5479879  47.5255889
  18.1883779   8.0137992  47.3820462  17.0250171   7.6153488  46.7753486
  17.5065272   7.6263715  47.3940670  16.6335735   4.4077421  58.7756578
  16.0192728   3.8635471  59.0705213  17.1503020   3.8941657  58.2962394
  16.6191398   4.2513830  58.7480806  15.8732032   5.4781691  56.5100876
  15.4459641   4.8531410  56.0766312  15.8656977   5.1956613  57.3359884
  15.8091174   5.3434472  56.5680704  23.2852260   3.2719954  59.1292112
  23.8770100   3.9117204  59.1610310  23.7211254   2.5742990  59.4184179
  23.4370691   3.2638304  59.1772945  15.1145650   7.6937326  59.7550006
  14.6070741   8.2473173  60.1990637  14.8172296   7.7545616  58.9368781
  14.9950535   7.7843637  59.6998463  17.7253430  11.6100584  47.6853950
  17.0082740  11.4361446  47.2201187  18.3760168  11.3753156  47.1529436
  17.7155280  11.5496376  47.5383168  20.3101401   0.4865172  51.4295255
  19.6392591   1.0294874  51.3008320  21.0041151   0.9560027  51.1876950
  20.3130269   0.6363443  51.3750783  14.3588135  12.6261884  56.6607013
  14.1353789  11.8680713  57.0291040  13.8697978  12.6559905  55.9387453
  14.2531584  12.5184109  56.6083754  13.0066592  12.8462342  54.1144098
  12.5926990  12.1836472  53.7247939  13.6913966  12.9940201  53.5939792
  13.0464964  12.7703000  53.9800595  16.3731886  12.0052428  54.8667714
  15.9748169  12.1154698  54.0988535  15.7583106  12.2134494  55.4494274
  16.2230775  12.0525996  54.8399014  24.1073729   6.5804394  48.2510805
  24.4907334   7.3295750  48.4808902  23.3117842   6.8270214  47.9922794
  24.0467511   6.7274088  48.2468379  18.2715163   2.2403519  55.0682969
  18.7668828   1.5226514  55.0286990  17.4614939   1.9374317  54.9537456
  18.2259056   2.0901165  55.0456695  13.7173774   6.0901332  47.2179974
  12.9085097   5.7668006  47.1713283  14.2248683   5.3834554  47.1508223
  13.6723441   5.9382649  47.2010268  20.3366982   4.9907206  57.7560098
  20.7622053   4.4681628  57.2030523  19.9723902   5.5888044  57.2348721
  20.3453584   5.0017433  57.5969108   9.9721061  13.2871424  56.5157444
  10.2867620  14.1007812  56.5235226  10.3814475  12.9021643  57.1839603
  10.0789159  13.3500126  56.6161535  16.9245581   8.7041471  54.0861256
  17.3956759   9.4181733  54.2551241  17.2605760   8.1040221  54.6221125
  17.0440696   8.7212935  54.1893632  17.5619527   8.4959405  60.8488948
  17.0140473   7.8717288  60.5809014  18.0232556   8.6853677  60.1333028
  17.5486737   8.4318455  60.7039379  17.1277854   9.5010478  57.3798290
  17.9476228   9.3573444  57.6414585  16.8471931  10.1256676  57.9214727
  17.2074597   9.5720830  57.4986229  26.7991189  16.2450980  55.0994096
  25.9429084  16.4059479  55.1503213  26.8458843  15.3743044  55.1199157
  26.6790300  16.1401782  55.1100162  21.1832329  25.7813698  50.8631328
  20.4315228  25.4029236  50.6347373  21.6318340  25.8132132  50.1150138
  21.1381996  25.7299305  50.7188830  30.1084906  22.5137506  64.7054552
  30.8151673  22.0189537  64.8341487  30.2972841  22.9546587  63.9757210
  30.2412811  22.5055856  64.6163598  26.6357289  26.2039068  46.2916875
  26.3008657  26.8815989  45.8561097  27.1484159  25.8144379  45.7033747
  26.6622870  26.2463646  46.1403666  26.1761580  28.1553336  52.2327987
  26.5600959  28.7240235  51.6932762  26.1120721  27.4302847  51.7533803
  26.2235007  28.1328800  52.0821849  29.6443010  18.3043024  57.7425748
  30.1898970  18.9828111  57.8019718  29.5859886  18.1630485  56.8827330
  29.7158924  18.3835026  57.6237809  22.7617085  25.7932090  53.1294100
  22.8627448  24.9832444  53.4391228  22.1658830  25.6989037  52.4993779
  22.6889624  25.6597118  53.0820339  31.4208079  19.7327631  48.6159476
  31.3047605  20.4835317  49.0451614  32.2163965  19.4751585  48.8655563
  31.5212668  19.8062478  48.7163567  22.6017824  30.7109679  54.5308956
  23.2455280  31.1522844  54.9205115  22.9274080  29.9063106  54.4439215
  22.7449653  30.6574874  54.5754434  15.9582129  21.8152377  52.7546434
  15.7232314  20.9820029  52.6478703  16.0967770  22.0957043  51.9407635
  15.9437792  21.7335880  52.6188789  18.2572217  13.9838107  55.6530742
  17.6377248  13.3930755  55.4840757  18.1556080  14.5749543  55.0195065
  18.1509892  13.9842190  55.5335731  23.3038404  23.7221654  49.9028818
  23.6254245  24.2626862  49.2990126  23.9510501  23.1518426  50.0351108
  23.4464459  23.7180829  49.8335854  25.3540112  15.7237649  49.9863205
  26.0520277  15.9025777  50.4784668  25.6692445  15.2007989  49.3633594
  25.5035449  15.6731421  49.9665215  17.9841350  17.5290389  57.8974311
  17.8600046  18.1152835  58.5324130  18.6359634  17.0350585  58.1986586
  18.0614999  17.5429194  58.0360240  25.5428048  22.1108094  49.9742996
  25.9821683  21.5025195  50.4197769  25.3932710  21.7315468  49.2028461
  25.5849513  21.9646565  49.9262164  23.0099691  20.7052106  57.1761822
  23.6548693  20.2124549  56.8572770  23.2501468  20.8476893  58.0027900
  23.1410276  20.6529548  57.2511355  25.5485782  23.5507012  56.8268714
  25.8309025  22.7558418  56.6055470  26.2771942  24.0287599  56.8473775
  25.6975346  23.5041609  56.7971730  23.5266976  11.0930046  54.0684480
  23.1970306  11.5441190  53.3988178  22.8511978  11.0146209  54.6157486
  23.3777412  11.1481181  54.0507703  29.1437384  20.4635276  46.9273766
  29.0588679  21.3196242  47.0723334  29.6321767  20.1879600  47.5955925
  29.2026281  20.5492597  47.0475847  30.7343384   7.0815569  52.3134090
  30.4196825   7.7719047  52.7454513  30.2170325   7.0260351  51.6119591
  30.6107854   7.1750457  52.2731039  30.0755817  17.0820070  48.4271501
  29.5467289  17.2979703  49.0868807  30.5980837  17.7756208  48.3472470
  30.0744270  17.2163207  48.5127100  21.9655425  20.9783287  47.2278969
  21.3812640  21.4833318  47.6344833  21.5625520  20.7525673  46.4875561
  21.8194729  21.0191535  47.1783994  17.5199454  26.6938048  54.0302640
  17.0367032  27.4188537  54.0062224  18.3322772  26.9914178  54.1412798
  17.5690202  26.8440401  54.0429919  23.5913608  25.4870228  56.6352455
  23.0740550  25.1277643  56.0313763  24.2887999  24.9632403  56.6458521
  23.6179189  25.3567916  56.5482713  27.2477200  25.9365042  62.5968628
  27.3360546  25.7491183  63.4446838  27.6766912  25.2902472  62.1973475
  27.3239302  25.8128050  62.6640379  24.8147660  25.2196202  61.5786290
  24.2518494  24.8068812  62.1025951  25.5768683  25.1449108  61.9979433
  24.8442108  25.1473603  61.7179290  26.4232640  17.2248939  45.7047889
  26.6628643  17.4326922  44.8923232  26.7448481  16.4206447  45.8136834
  26.5069798  17.1363040  45.6008442  21.7322930   9.1542334  49.5507427
  22.4868898   9.5220651  49.3124477  21.5550464   9.5281889  50.3186607
  21.8177408   9.2640522  49.6292316  20.3743651  27.2094224  54.1822920
  21.0764230  26.6946213  54.2395677  20.2941134  27.5368375  54.9869795
  20.4667412  27.1808450  54.3095712  35.0257829  15.3036775  57.5954967
  34.1886250  15.3738962  57.8302561  34.9946060  15.3061270  56.7229269
  34.8976111  15.3147002  57.5014515  21.4222558  17.4469810  63.3103335
  21.5943061  17.3375705  64.1588617  21.9591915  18.0924216  63.0734527
  21.5267562  17.5261812  63.4008432  20.0879995  11.5612653  46.2485540
  19.9055568  11.7784534  45.4226533  20.9505608  11.6751666  46.3044155
  20.1884584  11.6102551  46.1340027  19.6994427  23.4000576  53.6908528
  20.5383326  23.6323508  53.7382290  19.7306196  22.5304887  53.6215564
  19.8276144  23.3057522  53.6873173  20.3247130  23.8201451  57.9921834
  20.8645354  23.6772582  58.6625206  19.6417076  24.2198202  58.3605860
  20.3039283  23.8581122  58.1456255  25.7679714   8.5639064  49.2834564
  26.4965874   8.3855019  48.8372720  25.8574607   9.4057144  49.4941742
  25.8886376   8.6622942  49.2488082  29.7488014  19.4992451  53.1866858
  30.5045529  19.9323966  53.2255767  29.8550339  18.8497221  53.7601494
  29.8758185  19.4669935  53.2764884  32.7868186  23.3265729  53.9369261
  32.3503417  23.3302471  54.6928232  32.4531101  24.0071228  53.5048838
  32.6730805  23.4278184  53.9850094  27.3597259  25.3674061  65.2612411
  28.1437676  25.4804909  65.6268153  27.1593854  24.5415199  65.4571097
  27.4463285  25.2620781  65.3446797  15.7284275  20.0401742  58.1456255
  15.4622690  19.2240858  58.3047245  15.7422839  20.0854897  57.2751771
  15.6908997  19.9258646  58.0409737  32.7065668  10.3679556  56.1798689
  33.3491577  10.4377661  56.7660604  32.9588689   9.7008779  55.6778231
  32.8387801  10.2805905  56.1925968  19.6342022  14.8386826  44.7608013
  18.9200199  14.5525005  45.1730446  20.1185990  15.1783452  45.4014401
  19.6001385  14.8468476  44.9163648  20.4782881  13.5780120  60.7923263
  19.7854678  13.1077100  61.0383994  21.0943208  13.3518424  61.3664970
  20.4667411  13.4747252  60.9132415  27.5167652  27.2784163  58.9078867
  26.7182898  27.0383664  59.1652736  27.9653664  27.3298556  59.6545915
  27.4642264  27.2506555  59.0563791  35.9212532  20.0446649  52.8288898
  36.5828966  19.4837317  52.7284807  35.2803944  19.5498679  53.1541589
  35.9241399  19.8883058  52.8621238  16.1377688  20.8260521  55.4267999
  15.9553261  20.8007407  54.5740292  16.8727357  21.2959459  55.4656908
  16.2191752  20.8921883  55.3065918  32.2077362  21.0612031  52.5700887
  32.4432952  21.2057230  51.7427738  32.3566926  21.8254439  52.9632401
  32.2643166  21.1951085  52.5064491  19.2023440  17.5445524  61.9350108
  19.9263412  17.5298554  62.4215003  19.3039576  18.2540879  61.4372076
  19.3241649  17.6470227  61.9328895  34.0367819  19.9013697  50.4070491
  34.3676036  20.4341337  49.8010586  34.6100907  19.9552585  51.0632442
  34.1701498  19.9883266  50.4148273  26.5768389  21.0244608  66.7999055
  25.7841370  21.3388120  66.9851675  26.6917316  21.2396077  65.9619840
  26.4763800  21.1028445  66.7037390  29.2499708  17.7478600  51.0894071
  29.3446563  18.4867894  51.5433696  28.6258552  17.3196075  51.5228635
  29.1708738  17.7939920  51.2202218  27.5052182  20.9264812  61.7384352
  28.0791044  20.2892056  61.8932916  27.4266986  20.9268895  60.8694009
  27.5785417  20.8329924  61.6330763  16.1048599  17.7054022  55.5767066
  16.6822101  17.5690472  56.2159311  15.4062660  17.2489806  55.8312650
  16.0869620  17.6176288  55.7089356  22.8615901  19.3588077  53.7905549
  22.6035145  18.5259812  53.7636849  22.9164384  19.5845690  52.9498050
  22.8315679  19.2685849  53.6625686  27.9416951  11.4616528  53.8909642
  27.2373278  10.9725713  54.0493561  27.9901925  11.4739002  53.0198086
  27.8447002  11.3906176  53.7848982  21.8350613  16.9125840  54.2770444
  21.2600204  17.0718008  54.9134405  21.4586289  16.2761249  53.8138895
  21.6953425  16.8423653  54.3025002  25.5023902  15.3849189  59.1362822
  25.1138334  14.9603407  58.4815014  24.8378600  15.6331339  59.6439849
  25.3470829  15.3587910  59.1150690  35.1447171  15.1424194  51.9110652
  34.8883736  14.3304135  51.7208535  35.9876485  15.1501761  51.6840840
  35.2313196  15.0236191  51.8495470  11.5807432  16.5565915  52.2914885
  11.6667684  16.1797783  53.0728415  12.2083229  16.1826360  51.8134843
  11.6863983  16.4451397  52.3360362  29.3250263   9.0823818  56.6486807
  29.7060775   8.4001989  57.0354681  28.5213547   8.7933420  56.4662471
  29.2626725   8.9390866  56.6790863  26.6062840  19.6147794  47.3339629
  27.4203479  19.9062686  47.2222401  26.5421981  18.9607656  46.7597922
  26.7165579  19.5612988  47.2328467  32.8272330  22.2973790  61.7469205
  32.5910967  21.4661855  61.6281266  33.4715559  22.2459397  62.3324049
  32.8867001  22.1671478  61.8155099  22.4770748  23.0869311  52.4611941
  23.1144695  22.8481059  53.0063735  22.9025820  23.2906470  51.7265102
  22.6346914  23.0820321  52.4329099  17.1683390  25.3257648  56.3446245
  17.2087536  25.5972499  55.5166025  17.7277915  25.8499556  56.7604033
  17.2566736  25.4433403  56.2838133  23.1173563  18.3071601  46.7986831
  23.5018716  18.0879308  47.5503376  22.8685183  19.1334546  46.9287907
  23.1375636  18.3969747  46.9287907  23.2842104  11.5878016  66.5149415
  22.9695545  12.3577579  66.2518978  22.9632036  11.0248272  65.9301642
  23.1901023  11.6188285  66.3890765  33.8508751  22.0818239  57.8097500
  33.5454568  22.8146295  58.1710815  33.1314966  21.6756168  57.5290286
  33.6996093  22.1299972  57.8210637  24.8592220  23.5641734  54.1405728
  24.9331228  23.4016906  54.9947578  25.6761726  23.7531923  53.8966209
  24.9908579  23.5678476  54.2303753  39.5510543  18.7211239  57.1365844
  39.4835043  18.7407198  56.2668430  39.5366205  19.5641566  57.3621514
  39.5389299  18.8484974  57.0418321  18.6197977  23.9099597  51.1700171
  17.7936094  24.1561334  51.0434450  18.6809968  23.8311677  52.0362229
  18.5072144  23.9344546  51.2789116  20.8374000   9.9768538  52.1295611
  19.9696426  10.0491137  52.1953221  21.1249205  10.7790616  52.3183586
  20.7513749  10.1062685  52.1670378  29.9606889  10.1246397  60.4606933
  30.7060481   9.9356207  60.0470359  29.5444194  10.6504635  59.9020790
  30.0091863  10.1748542  60.3171506  23.3996806  26.5276477  48.8719201
  23.6895104  26.1365458  48.1478428  24.1300287  26.7093182  49.3124476
  23.5503690  26.4970291  48.8302008  37.3369160  17.4955625  55.4112438
  37.8877082  16.8623694  55.6509530  37.3213275  18.0271018  56.1027942
  37.4154356  17.4804574  55.5491296  23.9891551  21.3294223  59.9572332
  23.4903245  22.0409990  60.0357220  24.7991775  21.6494889  59.9190494
  24.0347658  21.4821071  59.9628900  21.3402721  28.5043859  51.9379351
  21.1203017  28.2141214  52.7306018  21.1197243  27.8458814  51.4097263
  21.2750316  28.3643568  51.9768260  20.2519669  20.5917176  54.2035053
  19.9632917  19.9654647  54.7380780  21.1203017  20.5337463  54.2699733
  20.3379920  20.4904720  54.2926007  31.0397566  15.7351959  54.5217034
  30.6962332  15.0142294  54.8724284  31.1390609  15.5265810  53.6795393
  31.0039609  15.5976162  54.4488714  23.5070677  29.8773249  50.7210043
  24.1594735  29.3449691  50.9501069  22.8096286  29.5241901  51.1077917
  23.5001395  29.7462772  50.8122211  20.4551942  22.2312427  50.1277418
  21.2097910  22.6125466  50.3412880  19.8622555  22.6823570  50.5824114
  20.4788655  22.3541254  50.2260296  22.9158609  14.1875267  65.2534630
  22.1058385  14.4933047  65.1424472  23.3933296  14.9080849  65.3687214
  22.8662088  14.3389868  65.2541701  21.7750169  23.4020988  55.5017533
  21.2530922  23.5421280  56.1869398  22.1624189  22.6431652  55.6919650
  21.7553869  23.3106512  55.6318609  18.7641353  13.4526797  49.5712488
  18.4766148  13.0828067  48.8344435  19.4511821  13.9221652  49.3096193
  18.8230250  13.4673766  49.4227563  23.2016494  20.4325007  50.8999024
  23.0059277  21.0399742  50.3059327  23.4250840  19.7392951  50.4190698
  23.2051135  20.4202533  50.7415105  21.5995024  17.3179745  51.0179892
  22.3217676  17.4820903  50.5583698  21.1203017  18.0389410  50.9119232
  21.6358755  17.4477975  50.9345506  29.5588532  13.6543544  56.3976577
  28.7199632  13.6804823  56.1614841  29.6292899  14.3014279  56.9781924
  29.4456925  13.7539670  56.4485694  19.2502641  19.7237817  60.1234032
  19.7623738  20.0022071  59.4742792  18.9638983  20.4627112  60.4896845
  19.2837504  19.8740171  60.0823910  28.0057810  10.5528921  51.1304193
  28.7084163  10.3536669  50.6524151  27.7401999   9.7804863  51.4373037
  28.0704442  10.4091887  51.1049635  33.4346056  18.8611531  53.6837819
  33.3480030  19.0166957  54.5372598  32.9796535  19.5049606  53.3097224
  33.3549312  18.9787286  53.7544926  16.3369547  14.2308009  50.4197769
  16.4385684  15.0334171  50.7478744  17.1325434  14.0295345  50.1220849
  16.4697453  14.3193908  50.4233124  22.7686366  11.8164206  60.1835074
  22.5769563  11.8319340  61.0334497  23.6184962  12.0127880  60.1601729
  22.8662088  11.8478557  60.3058369  17.1533279  14.3455188  58.1618890
  17.0118771  13.4939128  58.2863398  17.4373843  14.3883848  57.3381096
  17.1741125  14.2254938  58.0586514  27.3071872  16.1822278  52.3063379
  27.0606586  16.1018029  53.1400167  27.6356995  15.3975746  52.1125906
  27.3193115  16.0548543  52.4010902  31.2019920  22.8905637  56.0950160
  31.0634280  23.5886683  56.5998902  30.4219918  22.7354294  55.7386342
  31.0663147  22.9705804  56.1176434  29.5398006  19.1902012  62.3472541
  29.5346044  18.3181829  62.3514968  30.2458999  19.3890182  61.8741997
  29.6443010  19.0905887  62.2779577  23.2668899  18.9178996  61.7186362
  23.4112275  19.4980204  61.0829472  23.6144547  19.2955293  62.4236216
  23.3396360  19.0599700  61.7285357  25.4388816  18.1169165  59.5011493
  24.6912130  18.3100179  59.0959771  25.5930341  17.2914384  59.2635615
  25.3511244  18.0234276  59.4056899  22.3396654  27.1081768  58.5847388
  22.4886218  26.5484684  57.9320793  23.1196656  27.1873770  58.9679907
  22.4770748  27.0367334  58.5444338  24.8649955  27.2796411  59.8631879
  24.7893626  26.6105222  60.4182668  24.7939814  27.9814199  60.3772546
  24.8430561  27.2841318  60.0208727  25.6790593  12.0119715  60.3906897
  26.1363207  12.7443690  60.5179689  25.7546922  11.5886181  61.1494153
  25.7581563  12.0576953  60.5207973  17.9223584  12.2585535  61.4796341
  17.3865774  11.6465893  61.7957108  17.9841349  12.8333671  62.1330007
  17.8519217  12.2532463  61.6231767  30.1517919   5.1909591  54.2600740
  30.2701487   5.6486054  53.5268043  29.9780095   4.3854852  53.9736957
  30.1437090   5.1403363  54.1101674  25.5220201  25.7997410  50.6955485
  26.2870093  25.5307054  50.3738149  25.4198291  25.3147420  51.4125548
  25.6201697  25.6886975  50.7535313  23.5572971  14.0021819  57.2348721
  22.7669046  13.8213279  57.5566057  23.9533594  13.2248772  57.2179015
  23.4989847  13.8609280  57.2801269  28.9416657  21.6364249  54.9608167
  28.2661659  21.4049482  55.4621554  28.9509034  21.0285432  54.3350272
  28.8435162  21.5123175  54.9424319  26.0710801  16.4782078  61.7172220
  26.0069943  17.3392035  61.5892357  26.2107989  16.1614072  60.9167771
  26.0826272  16.5582245  61.5800433  24.7529895  19.1714218  55.8588423
  24.3292144  19.3718717  55.1227441  24.5774751  18.3243066  55.9712723
  24.6640776  19.0762999  55.7662113  24.2541589  30.6864731  58.3209880
  24.7437519  29.9875520  58.1385545  23.6825821  30.3888601  58.9085937
  24.2426119  30.5390954  58.3810921  20.0412340  19.6666269  51.2916395
  20.1976959  19.6013072  52.1472387  20.3812933  20.4414822  51.0795075
  20.1145575  19.7715467  51.3870989  26.5791485  19.0424153  50.1609759
  27.1207030  18.5394534  50.6248379  26.8938044  18.9889347  49.3499244
  26.7055882  18.9603574  50.1093571  30.4508592  23.2526800  67.2736671
  31.2643458  22.9811949  67.4341803  30.2903559  22.9534340  66.4696867
  30.5478541  23.1681726  67.1782077  24.7477935  24.4341504  47.4449787
  24.8170755  23.5756043  47.5842787  25.5266390  24.6513385  47.1168811
  24.8730785  24.3394368  47.4166944  27.7280754  13.9360457  60.2132059
  27.9422724  13.2971372  59.6595413  27.1114653  14.3806281  59.7839921
  27.6686084  13.9070601  60.0682490  16.6146602  16.8501220  51.6077162
  16.9945567  17.2685765  50.9437430  16.0401967  17.4314675  51.9146006
  16.5857927  16.9979079  51.5553903  29.8919842  15.5449522  61.1515366
  29.0796524  15.2375413  61.2328539  30.3509777  15.0648523  61.7158078
  29.8400227  15.4286015  61.2469960  29.3025097  23.4229194  51.5992310
  28.9439752  23.5943837  52.3756343  28.8163808  23.8842400  51.0420309
  29.1783794  23.5168166  51.6317580  27.1195483   7.0460393  55.2019402
  26.2489041   7.0199114  55.1552711  27.3735824   6.8737585  54.3845247
  27.0289043   7.0170537  55.0739539  24.0913462  19.1028360  44.1392545
  24.3805987  19.8793242  44.4136119  24.1785261  18.5917091  44.8407044
  24.1467719  19.1420278  44.2835043  26.9873350  16.9509594  65.9344068
  27.4572981  17.5751710  66.3211943  27.0335230  16.2826569  66.4937283
  27.0641226  16.9444274  66.0744140  24.1444623   9.0566621  56.6592872
  23.6283112   8.3646813  56.7844451  23.5838552   9.7237398  56.6055471
  23.9851137   9.0529879  56.6698938  26.2136857   9.5959581  58.4885725
  25.8268610   9.6208613  59.2699255  25.7269794   9.0301260  58.0360241
  26.0849366   9.5155332  58.5373628  30.4629836  24.3133090  62.5459511
  31.1009557  23.8193286  62.2121967  29.8203928  24.2410491  61.9611738
  30.4624063  24.2292099  62.4101866  32.1886836  16.1622236  57.1125427
  31.7614445  16.0748585  56.3573526  31.5512889  16.2700012  57.6980271
  32.0316444  16.1654896  57.0870868  25.8793999   6.4826567  60.7795985
  26.5087117   7.0186867  60.5017055  26.0479861   6.3903926  61.6309550
  25.9971793   6.5487929  60.8644513  25.6807914  11.2697762  63.0522396
  26.5081343  10.9982911  63.1081011  25.7015760  12.0658603  63.4086214
  25.8060764  11.3477516  63.1137579  30.5184093  25.0052899  59.1864868
  31.3076471  24.6541963  59.3066950  30.6927691  25.8189287  58.9241502
  30.6604375  25.0738756  59.1652736  20.2577403  18.4161624  56.2392657
  19.4165410  18.3165499  56.4471551  20.4667411  19.1857105  56.5906978
  20.1642096  18.5153668  56.3219972  17.7352970  16.0381161  54.0677408
  17.3409668  16.1124173  53.2927517  17.1793087  16.4239108  54.6185769
  17.5955783  16.1062936  54.0345067  29.3717917   9.0162455  53.7481286
  29.5767510   8.9484763  54.5938284  29.0444341   9.8221277  53.6802464
  29.3533165   9.1248396  53.8640942  24.0694068  16.3443024  55.4890254
  23.7657206  15.7899012  56.0900662  23.3673489  16.5235234  55.0018289
  23.9210278  16.2887806  55.5059960  23.1260165  13.6543543  50.0534956
  23.4019900  12.9362456  49.6412524  23.7258835  14.2528463  49.8456062
  23.2553430  13.6363914  49.9615717  22.1312419  23.5592744  60.1962352
  22.0232774  23.5694806  61.0624410  22.3408201  24.3847525  60.0067306
  22.1462530  23.6833819  60.2966444  32.6251605   9.5694220  53.2284052
  32.0125918  10.0564622  53.6137784  32.7215780   8.8937711  53.7721703
  32.5489502   9.5412528  53.3662910  26.6270686  11.3257061  48.3281551
  27.0814432  11.4967621  49.0529396  27.1010732  10.7125171  47.9279327
  26.7639006  11.2607946  48.3755313  20.1486211  20.8105387  57.6584290
  19.5574144  21.4514885  57.6287305  20.9107235  21.2343004  57.6315589
  20.1734472  20.9681225  57.6499437  20.5446834  11.9707384  58.3252307
  21.0048316  12.0446314  59.0627431  20.5902941  12.7688639  57.9752129
  20.6197389  12.1001532  58.3825064  22.1930184  12.6374079  62.8924335
  21.8015749  11.9907426  63.3280112  22.3616046  13.2285515  63.5118590
  22.1601094  12.6288347  63.0487040  36.2676633  20.6411156  58.6561568
  36.3259756  21.0897805  59.4021545  35.6343100  21.0509969  58.2191648
  36.1827928  20.7684891  58.7014116  29.9075727  26.2614698  55.0916314
  29.7095416  26.7505513  54.3972526  29.2863439  26.4655940  55.6700448
  29.7863292  26.3631237  55.0739538  23.9683706  18.0299595  49.4326559
  24.7125751  18.4173871  49.6709508  24.1144402  17.1857021  49.5967046
  24.0994291  17.9630068  49.4920528  25.8863281   9.8249854  54.4658420
  25.0399326   9.9972662  54.3399770  25.8834414   9.0199198  54.8024248
  25.7610431   9.7310883  54.4969547  26.9561582  13.6025068  55.3320478
  26.4821536  13.0766830  55.8425789  27.3279717  13.0554541  54.7635339
  26.9411471  13.4441065  55.3235625  17.3334612  15.5996575  60.7004024
  18.1960225  15.4992284  60.6141353  17.0026395  15.0191284  60.1389596
  17.4119808  15.4988202  60.6049429  33.2198312  18.6627444  56.7427258
  32.9796535  17.8233859  56.7469685  33.6990319  18.7427611  57.4668032
  33.2550496  18.5508844  56.8502061  28.8845081  14.4961623  48.3946232
  28.3568100  14.5790367  47.7051941  29.3440789  15.2379494  48.3910876
  28.8746932  14.6182285  48.2920927  35.2203499  15.4428901  54.6956517
  34.9813269  15.4024735  53.8577302  35.3837401  16.2900053  54.8222239
  35.2093803  15.5620986  54.5909999  31.8249529  19.8278851  60.6261563
  32.5483728  19.3751377  60.4472583  31.5599492  20.1083516  59.8433890
  31.8930803  19.8029819  60.4840278  20.6936398  14.4239024  57.3614442
  20.0689468  14.4357416  56.7540395  20.3581993  14.8999199  58.0105682
  20.5521890  14.4957541  57.3671010  20.8778146  12.7664143  43.4187127
  20.5290951  13.4183868  43.8818676  20.3974592  12.7521256  42.6910998
  20.7548390  12.8607196  43.3798218  17.4062073  22.4839484  58.8018206
  16.8761998  21.7931923  58.8513181  17.6787167  22.4749670  57.9730915
  17.3686796  22.3806616  58.6865622  27.6068319  19.9262729  58.7756578
  26.9925312  19.3820779  59.0705213  28.1235604  19.4126965  58.2962394
  27.5923981  19.7699138  58.7480806  26.8464616  20.9966999  56.5100876
  26.4192224  20.3716718  56.0766312  26.8389560  20.7141921  57.3359884
  26.7823757  20.8619780  56.5680704  19.9627143  16.0332172  59.5789310
  20.1220630  15.2775496  59.9841032  19.7820037  16.5823111  60.2330048
  19.9592502  16.0025986  59.7352016  27.9047446   8.1993408  60.1340100
  27.4088007   8.3957082  59.4431667  28.6616508   8.5986076  59.9628901
  27.9434271   8.2871141  60.0060237  25.1750326  11.8735753  56.7243410
  25.1992813  11.3395866  56.0356190  25.4261799  11.3653062  57.3869001
  25.2160244  11.7196657  56.7208055  12.6857916  19.1567248  56.1586554
  12.5801365  19.1114093  55.2938638  11.9358136  19.5021029  56.4400839
  12.5593519  19.2008157  56.0723884  21.4551648  10.6006572  56.1049155
  21.4950020  11.1015778  56.8183862  20.6301313  10.6916965  55.8355078
  21.3391174  10.6888388  56.1699693  23.6381261  20.1667312  64.2069449
  22.7876891  20.3039026  64.3427094  23.8009389  19.4331090  64.6517151
  23.5365124  20.0781413  64.2925048  22.8766011  17.1167081  58.4023054
  22.0457941  17.2840899  58.1958302  22.8217529  16.7403032  59.1871939
  22.7455426  17.0856813  58.4871582  20.6849795  10.6075974  64.0379464
  21.3102498  10.0638107  64.3108897  20.2300275  10.1270892  63.4687255
  20.7098055  10.4565456  63.9941058  21.2502055  15.3922673  48.9313171
  21.3905016  15.8895137  49.6341813  21.7484588  14.6908967  49.0727385
  21.3443136  15.3624652  49.0564750  21.2802278  16.2589784  46.2605748
  21.9147357  16.8550209  46.1955210  21.3627888  15.9593242  47.0751618
  21.3858829  16.3030692  46.3708835  34.2584843  18.7905261  59.1292112
  34.8502684  19.4302512  59.1610310  34.6943838  18.0928298  59.4184179
  34.4103275  18.7823612  59.1772945  22.8581260  12.1903759  46.2351190
  23.1797102  11.7106842  45.5810452  23.1208204  13.0003406  46.0442002
  22.9447286  12.2393657  46.1106682  26.0878233  23.2122634  59.7550006
  25.5803324  23.7658481  60.1990637  25.7904879  23.2730924  58.9368781
  25.9683118  23.3028945  59.6998463  28.2540415  11.5775953  58.5974669
  28.6795487  11.1248480  57.9858196  27.6397409  11.0236024  58.8739457
  28.2269061  11.4289930  58.5479695  17.7855265  18.4557625  49.5295294
  18.2947495  19.0522132  49.9106600  18.2589538  18.1883598  48.8471714
  17.9298641  18.5043440  49.4849817  26.6934638   8.0491053  52.0065246
  26.0502956   7.8988700  52.5750385  26.3534045   7.8033399  51.2414351
  26.5479716   7.9903176  51.9768261  31.2833985  16.0050480  51.4295255
  30.6125175  16.5480182  51.3008320  31.9773735  16.4745335  51.1876950
  31.2862852  16.1548751  51.3750783  25.3320718  28.1447192  56.6607013
  25.1086373  27.3866021  57.0291040  24.8430562  28.1745213  55.9387453
  25.2264168  28.0369417  56.6083754  31.4462112  12.4606364  54.3385628
  31.7989722  12.0336087  55.0131427  30.5876914  12.3757207  54.4686704
  31.3711557  12.3851104  54.4580639  20.1445797  15.0913883  52.3968475
  19.4257786  15.5078016  52.6641338  20.5158159  15.6568122  51.8460113
  20.0937729  15.2363165  52.3551282  29.4445378  15.7241732  58.2870470
  29.4243305  15.5425027  59.1405249  29.4924579  16.5953751  58.2630054
  29.4480019  15.8258271  58.4093765  27.3891708  22.3128924  64.2118947
  27.3487563  21.6678601  63.6264103  28.2015026  22.2565542  64.5244359
  27.5034861  22.2087891  64.1715896  23.9799175  28.3647650  54.1144098
  23.5659574  27.7021780  53.7247939  24.6646550  28.5125509  53.5939792
  24.0197547  28.2888308  53.9800595  25.9192372  14.1311883  47.7341854
  25.3257211  14.4528880  47.1826421  25.9567649  13.2852979  47.5262960
  25.8366761  14.0536212  47.6224625  32.8786172   7.5824776  55.2669941
  32.3717037   6.8753915  55.1991118  33.6753606   7.2517964  55.3971017
  32.9213412   7.4297927  55.2768936  28.7950188  14.0891388  51.1643604
  28.5663881  14.1124089  50.3221963  29.0548264  13.2648855  51.2838615
  28.7996376  13.9707468  51.0568802  23.0769417  15.9425861  60.7668705
  22.5648320  15.3347044  61.1253736  22.9048913  16.6582453  61.2342680
  22.9759054  15.9589160  60.8884928  17.9235131  14.3863436  63.4171066
  17.7537722  15.0464811  62.8719273  17.4801081  14.5969997  64.1383555
  17.8334465  14.5149418  63.4432696  21.8494951  12.6267934  52.4597800
  22.3252317  12.9885014  51.8247981  21.3483550  13.2824402  52.7397943
  21.8460310  12.7762123  52.4074541  35.0806312  22.0989702  48.2510805
  35.4639918  22.8481058  48.4808902  34.2850426  22.3455522  47.9922794
  35.0200094  22.2459396  48.2468379  26.9538487  13.8650105  63.2070960
  27.5109917  13.6363915  62.5749426  26.6299552  14.6255771  62.9306172
  26.9884897  13.9433942  63.0727457  14.8237196  17.2910302  58.6759556
  14.2763915  16.6210947  58.7940424  15.6129574  16.9240150  58.7403023
  14.8589379  17.1375288  58.7028257  24.6721604  16.9517759  64.1722967
  25.4232931  17.2669436  64.4862521  24.8644181  16.7496930  63.3456889
  24.8113018  16.9685141  64.0966363  23.8921604  14.7709134  45.8271184
  24.2720569  14.7888763  45.0422299  23.1514200  15.2163123  45.7062031
  23.8390442  14.8390909  45.6934752  31.5206894  13.0791325  51.4146763
  31.5201121  12.9239982  52.2731039  31.3163074  13.9254312  51.3588148
  31.4906672  13.1811946  51.5334702  13.5824165  16.5031110  55.8305579
  13.4045926  16.0507718  56.5560495  13.2943187  17.3057271  56.0144057
  13.5137118  16.5553667  55.9649082  29.2447746  17.7588827  55.0682969
  29.7401412  17.0411822  55.0286990  28.4347522  17.4559625  54.9537456
  29.1991640  17.6086473  55.0456695  24.6906358  21.6086640  47.2179974
  23.8817681  21.2853314  47.1713283  25.1981267  20.9019862  47.1508223
  24.6456025  21.4567956  47.2010268  15.3196635  19.0358833  52.9427338
  14.4542155  19.0244524  52.8310109  15.4195451  18.8489056  53.7898478
  15.2070802  19.0064894  53.0516283  20.9453645  28.8056732  56.5157444
  21.2600204  29.6193120  56.5235226  21.3547058  28.4206951  57.1839603
  21.0521743  28.8685434  56.6161535  27.8978165  24.2226779  54.0861256
  28.3689343  24.9367041  54.2551241  28.2338343  23.6225529  54.6221125
  28.0173280  24.2398243  54.1893632  29.9855149  25.8328092  66.2653328
  30.0952115  25.0436653  66.6210075  30.3146046  25.7434028  65.4627666
  30.0507555  25.7033945  66.1995719  24.8147660   8.9954249  61.0419351
  24.9475565   8.1985243  61.3700326  25.1992812   9.5220652  61.6217626
  24.8903989   8.9554166  61.1762853  28.5352111  24.0144713  60.8488948
  27.9873057  23.3902596  60.5809014  28.9965140  24.2038985  60.1333028
  28.5219320  23.9503763  60.7039379  27.8880015   5.9184575  57.6400444
  27.0825979   5.8082305  57.9568282  27.7586750   6.0197031  56.7830310
  27.7500148   5.9168245  57.5608484  31.3445975  12.0830067  58.2340141
  30.7608964  12.5839274  57.8217708  31.6650269  11.5759623  57.6004464
  31.3059151  12.0821902  58.0798648  23.8840775  10.9970662  48.5098815
  24.7056469  11.1668975  48.2680510  23.4210425  11.1517923  47.7865113
  23.9371937  11.0452395  48.3670460  22.4736106   8.9913424  59.2897244
  23.0180519   8.6504551  59.8801586  22.5273042   9.8498886  59.4318529
  22.5625226   9.0668684  59.3979118  18.2866665  22.7529840  56.1636052
  18.8911523  22.7125674  55.5349873  18.0793978  23.6000992  56.1940108
  18.3455562  22.8717843  56.0752169  28.1010437  25.0195785  57.3798290
  28.9208811  24.8758752  57.6414585  27.8204515  25.6441984  57.9214727
  28.1807181  25.0906138  57.4986229  13.5217947  21.7364458  56.0334975
  13.4242226  20.9260729  56.3425032  14.3046817  21.7156251  55.6481243
  13.6234084  21.6131548  56.0221838  29.2304800  29.5023415  55.6530742
  28.6109832  28.9116063  55.4840757  29.1288664  30.0934851  55.0195065
  29.1242476  29.5027498  55.5335731  41.7075967  22.6000877  52.3134090
  41.3929408  23.2904355  52.7454513  41.1902909  22.5445659  51.6119591
  41.5840438  22.6935765  52.2731039  45.9990412  30.8222083  57.5954967
  45.1618833  30.8924270  57.8302561  45.9678643  30.8246578  56.7229269
  45.8708695  30.8332310  57.5014515  43.6798252  25.8864864  56.1798689
  44.3224160  25.9562969  56.7660604  43.9321273  25.2194087  55.6778231
  43.8120384  25.7991213  56.1925968  31.4515465  29.0965428  60.7923263
  30.7587261  28.6262407  61.0383994  32.0675792  28.8703732  61.3664970
  31.4399994  28.9932560  60.9132415  30.1756023  33.0630832  61.9350108
  30.8995996  33.0483862  62.4215003  30.2772160  33.7726187  61.4372076
  30.2974233  33.1655535  61.9328895  36.4756485  30.9034497  59.1362822
  36.0870918  30.4788715  58.4815014  35.8111183  31.1516647  59.6439849
  36.3203413  30.8773218  59.1150690  22.5540015  32.0751222  52.2914885
  22.6400267  31.6983091  53.0728415  23.1815813  31.7011668  51.8134843
  22.6596566  31.9636705  52.3360362  34.2574687  27.1063324  66.5149415
  33.9428128  27.8762887  66.2518978  33.9364620  26.5433580  65.9301642
  34.1633606  27.1373593  66.3890765  50.5243126  34.2396547  57.1365844
  50.4567627  34.2592506  56.2668430  50.5098789  35.0826874  57.3621514
  50.5121883  34.3670282  57.0418321  40.9339473  25.6431705  60.4606933
  41.6793065  25.4541515  60.0470359  40.5176777  26.1689943  59.9020790
  40.9824447  25.6933850  60.3171506  48.3101744  33.0140933  55.4112438
  48.8609665  32.3809002  55.6509530  48.2945859  33.5456326  56.1027942
  48.3886940  32.9989881  55.5491296  42.0130150  31.2537267  54.5217034
  41.6694916  30.5327602  54.8724284  42.1123192  31.0451118  53.6795393
  41.9772193  31.1161470  54.4488714  33.8891192  29.7060575  65.2534630
  33.0790968  30.0118355  65.1424472  34.3665879  30.4266157  65.3687214
  33.8394671  29.8575176  65.2541701  40.5321115  29.1728852  56.3976577
  39.6932216  29.1990131  56.1614841  40.6025483  29.8199587  56.9781924
  40.4189509  29.2724978  56.4485694  27.3102131  29.7493317  50.4197769
  27.4118267  30.5519479  50.7478744  28.1058017  29.5480653  50.1220849
  27.4430036  29.8379216  50.4233124  33.7418950  27.3349514  60.1835074
  33.5502147  27.3504648  61.0334497  34.5917546  27.5313188  60.1601729
  33.8394672  27.3663865  60.3058369  28.1265863  29.8640495  58.1618890
  27.9851355  29.0124436  58.2863398  28.4106426  29.9069156  57.3381096
  28.1473709  29.7440245  58.0586514  36.6523177  27.5305023  60.3906897
  37.1095791  28.2628998  60.5179689  36.7279506  27.1071489  61.1494153
  36.7314147  27.5762261  60.5207973  28.8956168  27.7770843  61.4796341
  28.3598358  27.1651201  61.7957108  28.9573933  28.3518979  62.1330007
  28.8251801  27.7717771  61.6231767  41.1250503  20.7094899  54.2600740
  41.2434071  21.1671362  53.5268043  40.9512678  19.9040160  53.9736957
  41.1169674  20.6588671  54.1101674  34.5305555  29.5207127  57.2348721
  33.7401630  29.3398587  57.5566057  34.9266178  28.7434080  57.2179015
  34.4722431  29.3794588  57.2801269  37.0443385  31.9967386  61.7172220
  36.9802526  32.8577343  61.5892357  37.1840573  31.6799380  60.9167771
  37.0558855  32.0767553  61.5800433  38.7013338  29.4545765  60.2132059
  38.9155307  28.8156679  59.6595413  38.0847237  29.8991589  59.7839921
  38.6418667  29.4255909  60.0682490  27.5879185  32.3686528  51.6077162
  27.9678150  32.7871073  50.9437430  27.0134550  32.9499983  51.9146006
  27.5590510  32.5164386  51.5553903  40.8652426  31.0634830  61.1515366
  40.0529108  30.7560721  61.2328539  41.3242360  30.5833831  61.7158078
  40.8132811  30.9471323  61.2469960  38.0928067  22.5645701  55.2019402
  37.2221624  22.5384422  55.1552711  38.3468408  22.3922893  54.3845247
  38.0021627  22.5355845  55.0739539  37.9605933  32.4694902  65.9344068
  38.4305565  33.0937018  66.3211943  38.0067814  31.8011877  66.4937283
  38.0373809  32.4629582  66.0744140  35.1177207  24.5751929  56.6592872
  34.6015696  23.8832121  56.7844451  34.5571136  25.2422706  56.6055471
  34.9583720  24.5715187  56.6698938  37.1869441  25.1144889  58.4885725
  36.8001194  25.1393921  59.2699255  36.7002378  24.5486568  58.0360241
  37.0581949  25.0340640  58.5373628  43.1619420  31.6807544  57.1125427
  42.7347028  31.5933893  56.3573526  42.5245473  31.7885320  57.6980271
  43.0049027  31.6840204  57.0870868  36.8526582  22.0011875  60.7795985
  37.4819700  22.5372175  60.5017055  37.0212445  21.9089234  61.6309550
  36.9704377  22.0673237  60.8644513  36.6540497  26.7883070  63.0522396
  37.4813926  26.5168218  63.1081011  36.6748343  27.5843911  63.4086214
  36.7793347  26.8662824  63.1137579  28.7085554  31.5566469  54.0677408
  28.3142252  31.6309481  53.2927517  28.1525671  31.9424416  54.6185769
  28.5688366  31.6248244  54.0345067  31.5179418  27.4892692  58.3252307
  31.9780899  27.5631622  59.0627431  31.5635524  28.2873946  57.9752129
  31.5929973  27.6186839  58.3825064  33.1662767  28.1559387  62.8924335
  32.7748332  27.5092734  63.3280112  33.3348630  28.7470823  63.5118590
  33.1333678  28.1473655  63.0487040  28.3067195  31.1181883  60.7004024
  29.1692808  31.0177592  60.6141353  27.9758978  30.5376592  60.1389596
  28.3852392  31.0173510  60.6049429  46.1936083  30.9614209  54.6956517
  45.9545853  30.9210043  53.8577302  46.3569984  31.8085361  54.8222239
  46.1826386  31.0806294  54.5909999  31.6668981  29.9424332  57.3614442
  31.0422052  29.9542724  56.7540395  31.3314576  30.4184507  58.0105682
  31.5254473  30.0142849  57.3671010  38.8780030  23.7178715  60.1340100
  38.3820591  23.9142390  59.4431667  39.6349092  24.1171384  59.9628901
  38.9166854  23.8056449  60.0060237  36.1482909  27.3921061  56.7243410
  36.1725397  26.8581174  56.0356190  36.3994383  26.8838370  57.3869001
  36.1892828  27.2381965  56.7208055  32.4284232  26.1191880  56.1049155
  32.4682603  26.6201086  56.8183862  31.6033896  26.2102273  55.8355078
  32.3123758  26.2073696  56.1699693  31.6582378  26.1261282  64.0379464
  32.2835082  25.5823415  64.3108897  31.2032858  25.6456200  63.4687255
  31.6830639  25.9750764  63.9941058  39.2272999  27.0961261  58.5974669
  39.6528071  26.6433788  57.9858196  38.6129992  26.5421332  58.8739457
  39.2001644  26.9475238  58.5479695  28.7587849  33.9742933  49.5295294
  29.2680078  34.5707440  49.9106600  29.2322121  33.7068906  48.8471714
  28.9031225  34.0228748  49.4849817  42.4194696  27.9791672  54.3385628
  42.7722306  27.5521395  55.0131427  41.5609497  27.8942515  54.4686704
  42.3444140  27.9036412  54.4580639  40.4177962  31.2427040  58.2870470
  40.3975889  31.0610335  59.1405249  40.4657162  32.1139059  58.2630054
  40.4212603  31.3443578  58.4093765  43.8518756  23.1010083  55.2669941
  43.3449621  22.3939223  55.1991118  44.6486190  22.7703272  55.3971017
  43.8945995  22.9483235  55.2768936  34.0502000  31.4611169  60.7668705
  33.5380903  30.8532352  61.1253736  33.8781496  32.1767761  61.2342680
  33.9491637  31.4774468  60.8884928  28.8967715  29.9048744  63.4171066
  28.7270305  30.5650119  62.8719273  28.4533665  30.1155305  64.1383555
  28.8067048  30.0334726  63.4432696  37.9271071  29.3835413  63.2070960
  38.4842501  29.1549223  62.5749426  37.6032136  30.1441079  62.9306172
  37.9617481  29.4619250  63.0727457  35.6454188  32.4703067  64.1722967
  36.3965515  32.7854744  64.4862521  35.8376764  32.2682238  63.3456889
  35.7845602  32.4870448  64.0966363  24.5556749  32.0216417  55.8305579
  24.3778510  31.5693026  56.5560495  24.2675771  32.8242579  56.0144057
  24.4869702  32.0738975  55.9649082  35.7880243  24.5139557  61.0419351
  35.9208149  23.7170551  61.3700326  36.1725396  25.0405960  61.6217626
  35.8636572  24.4739474  61.1762853  38.8612598  21.4369883  57.6400444
  38.0558562  21.3267613  57.9568282  38.7319334  21.5382339  56.7830310
  38.7232731  21.4353553  57.5608484  42.3178559  27.6015375  58.2340141
  41.7341548  28.1024582  57.8217708  42.6382853  27.0944931  57.6004464
  42.2791734  27.6007210  58.0798648  33.4468690  24.5098732  59.2897244
  33.9913103  24.1689859  59.8801586  33.5005626  25.3684194  59.4318529
  33.5357809  24.5853992  59.3979118  52.0550073  53.5508122  64.7054552
  52.7616840  53.0560152  64.8341487  52.2438008  53.9917203  63.9757210
  52.1877978  53.5426472  64.6163598  51.5908177  49.3413640  57.7425748
  52.1364137  50.0198727  57.8019718  51.5325053  49.2001101  56.8827330
  51.6624091  49.4205642  57.6237809  57.4769037  53.6936990  53.8004545
  56.6466741  53.9047634  53.9637962  57.4278290  52.8674045  53.5246829
  57.3475773  53.6026596  53.7841911  56.9722996  46.3407391  57.5954967
  56.1351417  46.4109578  57.8302561  56.9411227  46.3431886  56.7229269
  56.8441278  46.3517618  57.5014515  54.7333353  54.3636345  53.9369261
  54.2968585  54.3673087  54.6928232  54.3996268  55.0441843  53.5048838
  54.6195973  54.4648800  53.9850094  49.3062426  56.4044677  65.2612411
  50.0902843  56.5175525  65.6268153  49.1059021  55.5785814  65.4571097
  49.3928452  56.2991397  65.3446797  57.8677699  51.0817264  52.8288898
  58.5294133  50.5207933  52.7284807  57.2269111  50.5869295  53.1541589
  57.8706566  50.9253673  52.8621238  48.7554507  54.3787396  45.1369821
  49.1705655  54.0472420  44.4454317  47.9246436  54.1456298  45.0089958
  48.6942515  54.2958652  45.0160669  48.5233556  52.0615224  66.7999055
  47.7306537  52.3758736  66.9851675  48.6382484  52.2766693  65.9619840
  48.4228967  52.1399061  66.7037390  49.4517349  51.9635428  61.7384352
  50.0256211  51.3262672  61.8932916  49.3732153  51.9639510  60.8694009
  49.5250584  51.8700539  61.6330763  54.7737497  53.3344406  61.7469205
  54.5376135  52.5032470  61.6281266  55.4180726  53.2830013  62.3324049
  54.8332168  53.2042094  61.8155099  45.2307271  42.6248632  66.5149415
  44.9160712  43.3948195  66.2518978  44.9097203  42.0618888  65.9301642
  45.1366190  42.6558901  66.3890765  55.7973918  53.1188854  57.8097500
  55.4919735  53.8516911  58.1710815  55.0780133  52.7126784  57.5290286
  55.6461260  53.1670587  57.8210637  61.4975710  49.7581855  57.1365844
  61.4300210  49.7777814  56.2668430  61.4831372  50.6012182  57.3621514
  61.4854466  49.8855590  57.0418321  51.9072056  41.1617013  60.4606933
  52.6525648  40.9726823  60.0470359  51.4909361  41.6875251  59.9020790
  51.9557031  41.2119158  60.3171506  59.2834327  48.5326241  55.4112438
  59.8342249  47.8994310  55.6509530  59.2678443  49.0641634  56.1027942
  59.3619524  48.5175189  55.5491296  44.8623776  45.2245883  65.2534630
  44.0523552  45.5303663  65.1424472  45.3398463  45.9451465  65.3687214
  44.8127255  45.3760484  65.2541701  45.1481661  51.4695623  50.8999024
  44.9524444  52.0770358  50.3059327  45.3716007  50.7763567  50.4190698
  45.1516302  51.4573148  50.7415105  51.5053699  44.6914160  56.3976577
  50.6664799  44.7175439  56.1614841  51.5758066  45.3384895  56.9781924
  51.3922092  44.7910286  56.4485694  53.1485088  53.9276253  56.0950160
  53.0099447  54.6257299  56.5998902  52.3685085  53.7724909  55.7386342
  53.0128314  54.0076420  56.1176434  51.4863173  50.2272628  62.3472541
  51.4811211  49.3552445  62.3514968  52.1924167  50.4260797  61.8741997
  51.5908177  50.1276502  62.2779577  52.0983086  36.2280206  54.2600740
  52.2166654  36.6856670  53.5268043  51.9245262  35.4225468  53.9736957
  52.0902257  36.1773979  54.1101674  49.9904029  53.8680210  42.6755435
  50.7577014  53.9280334  42.2661286  49.5435338  53.2960651  42.1911753
  50.0377456  53.7916785  42.5433145  50.8881825  52.6734865  54.9608167
  50.2126826  52.4420098  55.4621554  50.8974201  52.0656048  54.3350272
  50.7900329  52.5493791  54.9424319  52.8898559  55.5299998  47.1918345
  52.9718397  56.3366984  46.8679796  53.3748301  55.5495957  47.9159118
  52.9735717  55.6520660  47.2505243  52.3973760  54.2897416  67.2736671
  53.2108625  54.0182565  67.4341803  52.2368726  53.9904956  66.4696867
  52.4943708  54.2052342  67.1782077  49.6745921  44.9731073  60.2132059
  49.8887891  44.3341987  59.6595413  49.0579821  45.4176897  59.7839921
  49.6151251  44.9441217  60.0682490  51.8385009  46.5820138  61.1515366
  51.0261691  46.2746029  61.2328539  52.2974944  46.1019138  61.7158078
  51.7865394  46.4656631  61.2469960  46.0378630  50.1398976  44.1392545
  46.3271154  50.9163858  44.4136119  46.1250428  49.6287707  44.8407044
  46.0932886  50.1790894  44.2835043  48.9338517  47.9880210  65.9344068
  49.4038148  48.6122326  66.3211943  48.9800397  47.3197185  66.4937283
  49.0106393  47.9814890  66.0744140  52.4095004  55.3503706  62.5459511
  53.0474724  54.8563902  62.2121967  51.7669095  55.2781107  61.9611738
  52.4089230  55.2662715  62.4101866  54.1352004  47.1992852  57.1125427
  53.7079612  47.1119201  56.3573526  53.4978057  47.3070628  57.6980271
  53.9781611  47.2025512  57.0870868  52.4649260  56.0423515  59.1864868
  53.2541638  55.6912579  59.3066950  52.6392858  56.8559903  58.9241502
  52.6069542  56.1109372  59.1652736  58.2141800  51.6781772  58.6561568
  58.2724924  52.1268421  59.4021545  57.5808268  52.0880585  58.2191648
  58.1293095  51.8055507  58.7014116  55.1663479  49.6998060  56.7427258
  54.9261702  48.8604475  56.7469685  55.6455487  49.7798227  57.4668032
  55.2015663  49.5879460  56.8502061  57.1668666  46.4799517  54.6956517
  56.9278436  46.4395351  53.8577302  57.3302568  47.3270669  54.8222239
  57.1558970  46.5991602  54.5909999  53.7714697  50.8649466  60.6261563
  54.4948895  50.4121993  60.4472583  53.5064659  51.1454132  59.8433890
  53.8395970  50.8400435  60.4840278  45.5846428  51.2037928  64.2069449
  44.7342059  51.3409642  64.3427094  45.7474556  50.4701706  64.6517151
  45.4830292  51.1152029  64.2925048  56.2050011  49.8275877  59.1292112
  56.7967851  50.4673128  59.1610310  56.6409005  49.1298914  59.4184179
  56.3568442  49.8194228  59.1772945  50.6451181  58.1656507  47.6853950
  49.9280490  57.9917370  47.2201187  51.2957918  57.9309080  47.1529436
  50.6353031  58.1052300  47.5383168  51.3910545  46.7612348  58.2870470
  51.3708472  46.5795643  59.1405249  51.4389746  47.6324367  58.2630054
  51.3945186  46.8628886  58.4093765  49.3356875  53.3499540  64.2118947
  49.2952730  52.7049217  63.6264103  50.1480193  53.2936158  64.5244359
  49.4500029  53.2458507  64.1715896  48.9003654  44.9020721  63.2070960
  49.4575084  44.6734531  62.5749426  48.5764719  45.6626387  62.9306172
  48.9350064  44.9804558  63.0727457  46.6186771  47.9888375  64.1722967
  47.3698098  48.3040051  64.4862521  46.8109348  47.7867546  63.3456889
  46.7578186  48.0055756  64.0966363  53.2564732  51.5463130  57.7560098
  53.6819804  51.0237552  57.2030523  52.8921652  52.1443968  57.2348721
  53.2651335  51.5573357  57.5969108  51.9320316  56.8698708  66.2653328
  52.0417282  56.0807268  66.6210075  52.2611213  56.7804644  65.4627666
  51.9972722  56.7404561  66.1995719  53.2911143  43.1200683  58.2340141
  52.7074131  43.6209890  57.8217708  53.6115437  42.6130239  57.6004464
  53.2524318  43.1192518  58.0798648  66.5189255  63.7131253  50.3441166
  66.4883259  64.5675890  50.5159435  67.1170604  63.4126546  50.9027310
  66.6026413  63.7947750  50.4515968  59.7188940  62.8006904  55.0994096
  58.8626835  62.9615402  55.1503213  59.7656593  61.9298968  55.1199157
  59.5988051  62.6957706  55.1100162  54.1030079  72.3369622  50.8631328
  53.3512979  71.9585160  50.6347373  54.5516091  72.3688056  50.1150138
  54.0579746  72.2855229  50.7188830  63.0282656  69.0693430  64.7054552
  63.7349424  68.5745460  64.8341487  63.2170592  69.5102511  63.9757210
  63.1610562  69.0611780  64.6163598  59.5555039  72.7594991  46.2916875
  59.2206408  73.4371913  45.8561097  60.0681910  72.3700303  45.7033747
  59.5820620  72.8019570  46.1403666  59.0959331  74.7109260  52.2327987
  59.4798710  75.2796159  51.6932762  59.0318472  73.9858770  51.7533803
  59.1432758  74.6884724  52.0821849  62.5640761  64.8598948  57.7425748
  63.1096721  65.5384035  57.8019718  62.5057637  64.7186409  56.8827330
  62.6356675  64.9390950  57.6237809  55.6814836  72.3488014  53.1294100
  55.7825199  71.5388368  53.4391228  55.0856581  72.2544960  52.4993779
  55.6087374  72.2153042  53.0820339  64.3405829  66.2883555  48.6159476
  64.2245355  67.0391241  49.0451614  65.1361716  66.0307508  48.8655563
  64.4410419  66.3618402  48.7163567  55.5215575  77.2665603  54.5308956
  56.1653031  77.7078767  54.9205115  55.8471831  76.4619029  54.4439215
  55.6647404  77.2130798  54.5754434  48.8779880  68.3708301  52.7546434
  48.6430064  67.5375953  52.6478703  49.0165521  68.6512966  51.9407635
  48.8635542  68.2891804  52.6188789  56.2236155  70.2777578  49.9028818
  56.5451996  70.8182785  49.2990126  56.8708251  69.7074349  50.0351108
  56.3662210  70.2736753  49.8335854  58.2737863  62.2793573  49.9863205
  58.9718028  62.4581701  50.4784668  58.5890195  61.7563912  49.3633594
  58.4233200  62.2287345  49.9665215  50.9039100  64.0846313  57.8974311
  50.7797797  64.6708758  58.5324130  51.5557385  63.5906509  58.1986586
  50.9812750  64.0985117  58.0360240  58.4625798  68.6664018  49.9742996
  58.9019434  68.0581119  50.4197769  58.3130461  68.2871391  49.2028461
  58.5047264  68.5202489  49.9262164  55.9297441  67.2608030  57.1761822
  56.5746444  66.7680473  56.8572770  56.1699218  67.4032817  58.0027900
  56.0608026  67.2085472  57.2511355  58.4683533  70.1062936  56.8268714
  58.7506776  69.3114342  56.6055470  59.1969693  70.5843523  56.8473775
  58.6173096  70.0597533  56.7971730  56.4464727  57.6485970  54.0684480
  56.1168057  58.0997113  53.3988178  55.7709728  57.5702133  54.6157486
  56.2975163  57.7037105  54.0507703  62.0635135  67.0191199  46.9273766
  61.9786430  67.8752166  47.0723334  62.5519518  66.7435523  47.5955925
  62.1224032  67.1048521  47.0475847  63.6541134  53.6371493  52.3134090
  63.3394575  54.3274971  52.7454513  63.1368076  53.5816275  51.6119591
  63.5305605  53.7306381  52.2731039  62.9953568  63.6375994  48.4271501
  62.4665040  63.8535627  49.0868807  63.5178588  64.3312132  48.3472470
  62.9942021  63.7719130  48.5127100  68.4501621  69.2122298  53.8004545
  67.6199324  69.4232942  53.9637962  68.4010873  68.3859353  53.5246829
  68.3208356  69.1211904  53.7841911  54.8853176  67.5339210  47.2278969
  54.3010391  68.0389242  47.6344833  54.4823271  67.3081597  46.4875561
  54.7392480  67.5747459  47.1783994  50.4397205  73.2493971  54.0302640
  49.9564783  73.9744461  54.0062224  51.2520523  73.5470101  54.1412798
  50.4887952  73.3996325  54.0429919  56.5111359  72.0426152  56.6352455
  55.9938300  71.6833567  56.0313763  57.2085750  71.5188327  56.6458521
  56.5376940  71.9123840  56.5482713  60.1674951  72.4920966  62.5968628
  60.2558296  72.3047107  63.4446838  60.5964663  71.8458396  62.1973475
  60.2437053  72.3683974  62.6640379  57.7345410  71.7752126  61.5786290
  57.1716245  71.3624736  62.1025951  58.4966434  71.7005032  61.9979433
  57.7639859  71.7029527  61.7179290  59.3430390  63.7804862  45.7047889
  59.5826394  63.9882846  44.8923232  59.6646231  62.9762371  45.8136834
  59.4267548  63.6918964  45.6008442  54.6520681  55.7098258  49.5507427
  55.4066649  56.0776575  49.3124477  54.4748215  56.0837812  50.3186607
  54.7375159  55.8196446  49.6292316  53.2941402  73.7650147  54.1822920
  53.9961981  73.2502136  54.2395677  53.2138885  74.0924299  54.9869795
  53.3865162  73.7364374  54.3095712  67.9455579  61.8592699  57.5954967
  67.1084000  61.9294886  57.8302561  67.9143810  61.8617193  56.7229269
  67.8173862  61.8702926  57.5014515  54.3420308  64.0025734  63.3103335
  54.5140812  63.8931629  64.1588617  54.8789666  64.6480140  63.0734527
  54.4465312  64.0817736  63.4008432  53.0077745  58.1168577  46.2485540
  52.8253318  58.3340458  45.4226533  53.8703358  58.2307590  46.3044155
  53.1082335  58.1658475  46.1340027  52.6192177  69.9556499  53.6908528
  53.4581077  70.1879432  53.7382290  52.6503946  69.0860811  53.6215564
  52.7473895  69.8613446  53.6873173  53.2444880  70.3757375  57.9921834
  53.7843105  70.2328506  58.6625206  52.5614827  70.7754125  58.3605860
  53.2237034  70.4137045  58.1456255  58.6877464  55.1194988  49.2834564
  59.4163625  54.9410943  48.8372720  58.7772357  55.9613068  49.4941742
  58.8084127  55.2178866  49.2488082  62.6685765  66.0548375  53.1866858
  63.4243280  66.4879890  53.2255767  62.7748090  65.4053145  53.7601494
  62.7955936  66.0225859  53.2764884  65.7065936  69.8821652  53.9369261
  65.2701168  69.8858395  54.6928232  65.3728852  70.5627151  53.5048838
  65.5928556  69.9834108  53.9850094  60.2795010  71.9229985  65.2612411
  61.0635426  72.0360833  65.6268153  60.0791604  71.0971122  65.4571097
  60.3661035  71.8176705  65.3446797  48.6482025  66.5957665  58.1456255
  48.3820441  65.7796782  58.3047245  48.6620589  66.6410821  57.2751771
  48.6106748  66.4814570  58.0409737  65.6263419  56.9235480  56.1798689
  66.2689328  56.9933585  56.7660604  65.8786440  56.2564703  55.6778231
  65.7585551  56.8361829  56.1925968  52.5539772  61.3942750  44.7608013
  51.8397949  61.1080929  45.1730446  53.0383741  61.7339376  45.4014401
  52.5199136  61.4024399  44.9163648  53.3980632  60.1336044  60.7923263
  52.7052428  59.6633023  61.0383994  54.0140959  59.9074348  61.3664970
  53.3865162  60.0303175  60.9132415  60.4365403  73.8340087  58.9078867
  59.6380649  73.5939587  59.1652736  60.8851415  73.8854480  59.6545915
  60.3840014  73.8062478  59.0563791  68.8410282  66.6002572  52.8288898
  69.5026717  66.0393241  52.7284807  68.2001694  66.1054603  53.1541589
  68.8439150  66.4438981  52.8621238  59.7287090  69.8972704  45.1369821
  60.1438239  69.5657728  44.4454317  58.8979020  69.6641606  45.0089958
  59.6675099  69.8143960  45.0160669  49.0575439  67.3816445  55.4267999
  48.8751012  67.3563331  54.5740292  49.7925108  67.8515383  55.4656908
  49.1389503  67.4477807  55.3065918  65.1275113  67.6167955  52.5700887
  65.3630702  67.7613154  51.7427738  65.2764677  68.3810363  52.9632401
  65.1840916  67.7507009  52.5064491  52.1221191  64.1001448  61.9350108
  52.8461163  64.0854478  62.4215003  52.2237327  64.8096803  61.4372076
  52.2439400  64.2026151  61.9328895  66.9565570  66.4569621  50.4070491
  67.2873787  66.9897261  49.8010586  67.5298658  66.5108508  51.0632442
  67.0899249  66.5439189  50.4148273  59.4966140  67.5800532  66.7999055
  58.7039121  67.8944044  66.9851675  59.6115067  67.7952001  65.9619840
  59.3961551  67.6584369  66.7037390  62.1697459  64.3034523  51.0894071
  62.2644313  65.0423817  51.5433696  61.5456303  63.8751999  51.5228635
  62.0906489  64.3495844  51.2202218  60.4249933  67.4820736  61.7384352
  60.9988795  66.8447980  61.8932916  60.3464737  67.4824818  60.8694009
  60.4983168  67.3885847  61.6330763  62.4220480  66.1483263  44.3231023
  62.3400643  66.2185450  45.1886010  63.0600201  66.7113007  44.1314764
  62.5040318  66.2422234  44.4220972  55.7813651  65.9144001  53.7905549
  55.5232896  65.0815736  53.7636849  55.8362134  66.1401614  52.9498050
  55.7513429  65.8241772  53.6625686  60.8614702  58.0172452  53.8909642
  60.1571028  57.5281637  54.0493561  60.9099676  58.0294926  53.0198086
  60.7644753  57.9462100  53.7848982  54.7548364  63.4681764  54.2770444
  54.1797955  63.6273932  54.9134405  54.3784040  62.8317173  53.8138895
  54.6151176  63.3979576  54.3025002  58.4221652  61.9405113  59.1362822
  58.0336085  61.5159331  58.4815014  57.7576351  62.1887262  59.6439849
  58.2668580  61.9143834  59.1150690  68.0644921  61.6980118  51.9110652
  67.8081486  60.8860059  51.7208535  68.9074235  61.7057685  51.6840840
  68.1510947  61.5792115  51.8495470  62.2448014  55.6379742  56.6486807
  62.6258526  54.9557913  57.0354681  61.4411298  55.3489344  56.4662471
  62.1824476  55.4946790  56.6790863  59.5260591  66.1703717  47.3339629
  60.3401229  66.4618610  47.2222401  59.4619732  65.5163580  46.7597922
  59.6363330  66.1168912  47.2328467  65.7470081  68.8529714  61.7469205
  65.5108718  68.0217778  61.6281266  66.3913310  68.8015321  62.3324049
  65.8064751  68.7227402  61.8155099  55.3968499  69.6425235  52.4611941
  56.0342446  69.4036982  53.0063735  55.8223570  69.8462394  51.7265102
  55.5544665  69.6376245  52.4329099  50.0881141  71.8813571  56.3446245
  50.1285286  72.1528422  55.5166025  50.6475665  72.4055479  56.7604033
  50.1764487  71.9989326  56.2838133  56.0371314  64.8627525  46.7986831
  56.4216467  64.6435231  47.5503376  55.7882934  65.6890470  46.9287907
  56.0573386  64.9525671  46.9287907  56.2039854  58.1433940  66.5149415
  55.8893295  58.9133503  66.2518978  55.8829787  57.5804196  65.9301642
  56.1098773  58.1744209  66.3890765  66.7706501  68.6374162  57.8097500
  66.4652318  69.3702219  58.1710815  66.0512717  68.2312092  57.5290286
  66.6193844  68.6855895  57.8210637  57.7789971  70.1197657  54.1405728
  57.8528979  69.9572829  54.9947578  58.5959477  70.3087847  53.8966209
  57.9106329  70.1234400  54.2303753  72.4708293  65.2767163  57.1365844
  72.4032794  65.2963122  56.2668430  72.4563956  66.1197490  57.3621514
  72.4587050  65.4040898  57.0418321  51.5395727  70.4655520  51.1700171
  50.7133845  70.7117257  51.0434450  51.6007719  70.3867601  52.0362229
  51.4269894  70.4900469  51.2789116  53.7571751  56.5324461  52.1295611
  52.8894177  56.6047061  52.1953221  54.0446956  57.3346540  52.3183586
  53.6711499  56.6618608  52.1670378  62.8804640  56.6802321  60.4606933
  63.6258232  56.4912131  60.0470359  62.4641945  57.2060559  59.9020790
  62.9289614  56.7304466  60.3171506  56.3194556  73.0832401  48.8719201
  56.6092855  72.6921382  48.1478428  57.0498037  73.2649105  49.3124476
  56.4701441  73.0526214  48.8302008  70.2566911  64.0511549  55.4112438
  70.8074832  63.4179618  55.6509530  70.2411026  64.5826942  56.1027942
  70.3352107  64.0360497  55.5491296  56.9089302  67.8850146  59.9572332
  56.4100995  68.5965914  60.0357220  57.7189526  68.2050813  59.9190494
  56.9545408  68.0376995  59.9628900  54.2600472  75.0599783  51.9379351
  54.0400767  74.7697138  52.7306018  54.0394994  74.4014738  51.4097263
  54.1948066  74.9199491  51.9768260  53.1717419  67.1473099  54.2035053
  52.8830668  66.5210571  54.7380780  54.0400767  67.0893387  54.2699733
  53.2577671  67.0460644  54.2926007  63.9595317  62.2907883  54.5217034
  63.6160083  61.5698218  54.8724284  64.0588360  62.0821734  53.6795393
  63.9237360  62.1532086  54.4488714  56.4268428  76.4329173  50.7210043
  57.0792486  75.9005615  50.9501069  55.7294036  76.0797825  51.1077917
  56.4199146  76.3018696  50.8122211  53.3749693  68.7868351  50.1277418
  54.1295661  69.1681390  50.3412880  52.7820305  69.2379494  50.5824114
  53.3986406  68.9097178  50.2260296  64.4208346  68.7533587  50.0641023
  64.9866379  69.4126797  49.9799565  63.7736250  69.0983285  50.5357425
  64.4087103  68.9015528  50.1213779  55.8356360  60.7431191  65.2534630
  55.0256135  61.0488971  65.1424472  56.3131046  61.4636773  65.3687214
  55.7859838  60.8945792  65.2541701  54.6947919  69.9576912  55.5017533
  54.1728673  70.0977204  56.1869398  55.0821940  69.1987576  55.6919650
  54.6751620  69.8662436  55.6318609  51.6839103  60.0082721  49.5712488
  51.3963899  59.6383991  48.8344435  52.3709572  60.4777576  49.3096193
  51.7428001  60.0229690  49.4227563  60.8914924  71.6972371  49.4878102
  60.6501600  70.9640232  49.0805167  61.0716257  72.2459228  48.8344435
  60.8822548  71.6694762  49.3308325  56.1214245  66.9880931  50.8999024
  55.9257027  67.5955665  50.3059327  56.3448590  66.2948875  50.4190698
  56.1248886  66.9758456  50.7415105  54.5192775  63.8735669  51.0179892
  55.2415427  64.0376827  50.5583698  54.0400768  64.5945334  50.9119232
  54.5556506  64.0033898  50.9345506  62.4786282  60.2099468  56.3976577
  61.6397383  60.2360747  56.1614841  62.5490650  60.8570203  56.9781924
  62.3654676  60.3095593  56.4485694  52.1700392  66.2793741  60.1234032
  52.6821488  66.5577995  59.4742792  51.8836734  67.0183035  60.4896845
  52.2035255  66.4296095  60.0823910  60.9255561  57.1084845  51.1304193
  61.6281914  56.9092593  50.6524151  60.6599749  56.3360787  51.4373037
  60.9902193  56.9647811  51.1049635  66.3543806  65.4167454  53.6837819
  66.2677781  65.5722880  54.5372598  65.8994286  66.0605530  53.3097224
  66.2747063  65.5343209  53.7544926  55.6884117  58.3720130  60.1835074
  55.4967314  58.3875264  61.0334497  56.5382713  58.5683804  60.1601729
  55.7859839  58.4034481  60.3058369  60.2269622  62.7378201  52.3063379
  59.9804337  62.6573952  53.1400167  60.5554745  61.9531669  52.1125906
  60.2390866  62.6104467  52.4010902  64.1217671  69.4461561  56.0950160
  63.9832030  70.1442607  56.5998902  63.3417669  69.2910217  55.7386342
  63.9860898  69.5261727  56.1176434  62.4595756  65.7457936  62.3472541
  62.4543795  64.8737753  62.3514968  63.1656750  65.9446105  61.8741997
  62.5640760  65.6461810  62.2779577  56.1866650  65.4734920  61.7186362
  56.3310025  66.0536128  61.0829472  56.5342298  65.8511217  62.4236216
  56.2594111  65.6155624  61.7285357  58.3586567  64.6725088  59.5011493
  57.6109881  64.8656103  59.0959771  58.5128092  63.8470308  59.2635615
  58.2708995  64.5790200  59.4056899  55.2594405  73.6637692  58.5847388
  55.4083968  73.1040608  57.9320793  56.0394407  73.7429694  58.9679907
  55.3968498  73.5923257  58.5444338  65.6171044  68.8039815  46.8566659
  65.2377853  68.0176953  46.8495948  64.9537289  69.3526672  46.7138303
  65.4629519  68.7684639  46.8347456  57.7847705  73.8352335  59.8631879
  57.7091376  73.1661145  60.4182668  57.7137564  74.5370123  60.3772546
  57.7628312  73.8397242  60.0208727  58.5988344  58.5675639  60.3906897
  59.0560958  59.2999614  60.5179689  58.6744673  58.1442104  61.1494153
  58.6779314  58.6132877  60.5207973  58.4417952  72.3553334  50.6955485
  59.2067843  72.0862977  50.3738149  58.3396042  71.8703344  51.4125548
  58.5399448  72.2442898  50.7535313  56.4770722  60.5577743  57.2348721
  55.6866797  60.3769203  57.5566057  56.8731345  59.7804696  57.2179015
  56.4187598  60.4165204  57.2801269  60.9636613  69.3865517  42.6755435
  61.7309598  69.4465642  42.2661286  60.5167922  68.8145959  42.1911753
  61.0110040  69.3102093  42.5433145  61.8614408  68.1920173  54.9608167
  61.1859410  67.9605406  55.4621554  61.8706784  67.5841356  54.3350272
  61.7632913  68.0679098  54.9424319  58.9908552  63.0338002  61.7172220
  58.9267693  63.8947959  61.5892357  59.1305740  62.7169995  60.9167771
  59.0024022  63.1138169  61.5800433  63.8631143  71.0485306  47.1918345
  63.9450980  71.8552292  46.8679796  64.3480885  71.0681265  47.9159118
  63.9468301  71.1705968  47.2505243  57.6727646  65.7270142  55.8588423
  57.2489895  65.9274641  55.1227441  57.4972501  64.8798990  55.9712723
  57.5838527  65.6318923  55.7662113  57.1739340  77.2420655  58.3209880
  57.6635270  76.5431444  58.1385545  56.6023572  76.9444525  58.9085937
  57.1623869  77.0946878  58.3810921  52.9610091  66.2222193  51.2916395
  53.1174710  66.1568996  52.1472387  53.3010684  66.9970746  51.0795075
  53.0343326  66.3271391  51.3870989  59.4989236  65.5980077  50.1609759
  60.0404781  65.0950458  50.6248379  59.8135795  65.5445271  49.3499244
  59.6253633  65.5159498  50.1093571  57.6675685  70.9897428  47.4449787
  57.7368506  70.1311967  47.5842787  58.4464141  71.2069309  47.1168811
  57.7928535  70.8950292  47.4166944  60.6478505  60.4916381  60.2132059
  60.8620475  59.8527295  59.6595413  60.0312404  60.9362205  59.7839921
  60.5883834  60.4626525  60.0682490  62.0583173  73.4135129  51.6586280
  61.6662965  73.1101845  50.9409146  62.2136245  74.2504219  51.4691234
  62.0236763  73.4918966  51.5242777  62.8117593  62.1005446  61.1515366
  61.9994275  61.7931337  61.2328539  63.2707528  61.6204446  61.7158078
  62.7597978  61.9841939  61.2469960  62.2222848  69.9785118  51.5992310
  61.8637502  70.1499761  52.3756343  61.7361559  70.4398324  51.0420309
  62.0981545  70.0724089  51.6317580  60.0393234  53.6016317  55.2019402
  59.1686792  53.5755038  55.1552711  60.2933575  53.4293509  54.3845247
  59.9486794  53.5726460  55.0739539  57.0111213  65.6584284  44.1392545
  57.3003738  66.4349166  44.4136119  57.0983012  65.1473015  44.8407044
  57.0665469  65.6976202  44.2835043  59.9071101  63.5065518  65.9344068
  60.3770732  64.1307634  66.3211943  59.9532981  62.8382493  66.4937283
  59.9838976  63.5000198  66.0744140  57.0642374  55.6122545  56.6592872
  56.5480863  54.9202737  56.7844451  56.5036303  56.2793322  56.6055471
  56.9048887  55.6085803  56.6698938  59.1334608  56.1515505  58.4885725
  58.7466361  56.1764537  59.2699255  58.6467545  55.5857184  58.0360241
  59.0047117  56.0711256  58.5373628  63.3827587  70.8689014  62.5459511
  64.0207308  70.3749210  62.2121967  62.7401679  70.7966415  61.9611738
  63.3821814  70.7848023  62.4101866  65.1084587  62.7178160  57.1125427
  64.6812195  62.6304509  56.3573526  64.4710640  62.8255936  57.6980271
  64.9514194  62.7210820  57.0870868  58.7991749  53.0382491  60.7795985
  59.4284867  53.5742791  60.5017055  58.9677612  52.9459850  61.6309550
  58.9169544  53.1043853  60.8644513  58.6005664  57.8253685  63.0522396
  59.4279094  57.5538834  63.1081011  58.6213510  58.6214527  63.4086214
  58.7258514  57.9033440  63.1137579  63.4381844  71.5608822  59.1864868
  64.2274222  71.2097887  59.3066950  63.6125442  72.3745211  58.9241502
  63.5802125  71.6294680  59.1652736  53.1775154  64.9717548  56.2392657
  52.3363161  64.8721422  56.4471551  53.3865162  65.7413029  56.5906978
  53.0839847  65.0709592  56.3219972  62.2915668  55.5718379  53.7481286
  62.4965261  55.5040687  54.5938284  61.9642092  56.3777200  53.6802464
  62.2730916  55.6804320  53.8640942  56.9891819  62.8998947  55.4890254
  56.6854956  62.3454936  56.0900662  56.2871240  63.0791157  55.0018289
  56.8408029  62.8443730  55.5059960  56.0457916  60.2099467  50.0534956
  56.3217650  59.4918380  49.6412524  56.6456585  60.8084387  49.8456062
  56.1751181  60.1919838  49.9615717  55.0510170  70.1148668  60.1962352
  54.9430525  70.1250730  61.0624410  55.2605951  70.9403449  60.0067306
  55.0660281  70.2389743  60.2966444  65.5449356  56.1250143  53.2284052
  64.9323669  56.6120546  53.6137784  65.6413530  55.4493634  53.7721703
  65.4687253  56.0968452  53.3662910  59.5468437  57.8812985  48.3281551
  60.0012183  58.0523545  49.0529396  60.0208482  57.2681095  47.9279327
  59.6836757  57.8163870  48.3755313  53.0683962  67.3661311  57.6584290
  52.4771895  68.0070809  57.6287305  53.8304986  67.7898928  57.6315589
  53.0932223  67.5237149  57.6499437  53.4644585  58.5263308  58.3252307
  53.9246066  58.6002238  59.0627431  53.5100691  59.3244562  57.9752129
  53.5395140  58.6557455  58.3825064  69.1874384  67.1967080  58.6561568
  69.2457507  67.6453729  59.4021545  68.5540851  67.6065893  58.2191648
  69.1025679  67.3240815  58.7014116  62.8273478  72.8170622  55.0916314
  62.6293167  73.3061437  54.3972526  62.2061189  73.0211864  55.6700448
  62.7061043  72.9187160  55.0739538  56.8881457  64.5855519  49.4326559
  57.6323502  64.9729795  49.6709508  57.0342153  63.7412944  49.5967046
  57.0192042  64.5185992  49.4920528  58.8061032  56.3805778  54.4658420
  57.9597077  56.5528586  54.3399770  58.8032164  55.5755122  54.8024248
  58.6808182  56.2866807  54.4969547  59.8759332  60.1580992  55.3320478
  59.4019287  59.6322754  55.8425789  60.2477468  59.6110465  54.7635339
  59.8609221  59.9996989  55.3235625  50.2532363  62.1552499  60.7004024
  51.1157976  62.0548208  60.6141353  49.9224146  61.5747208  60.1389596
  50.3317559  62.0544126  60.6049429  66.1396063  65.2183368  56.7427258
  65.8994286  64.3789783  56.7469685  66.6188070  65.2983535  57.4668032
  66.1748247  65.1064768  56.8502061  61.8042832  61.0517547  48.3946232
  61.2765851  61.1346291  47.7051941  62.2638540  61.7935418  48.3910876
  61.7944683  61.1738209  48.2920927  68.1401250  61.9984825  54.6956517
  67.9011020  61.9580659  53.8577302  68.3035151  62.8455977  54.8222239
  68.1291553  62.1176910  54.5909999  64.7447280  66.3834774  60.6261563
  65.4681479  65.9307301  60.4472583  64.4797242  66.6639440  59.8433890
  64.8128553  66.3585743  60.4840278  53.6134149  60.9794948  57.3614442
  52.9887219  60.9913340  56.7540395  53.2779743  61.4555123  58.0105682
  53.4719640  61.0513465  57.3671010  53.7975897  59.3220066  43.4187127
  53.4488702  59.9739792  43.8818676  53.3172343  59.3077179  42.6910998
  53.6746141  59.4163120  43.3798218  50.3259824  69.0395408  58.8018206
  49.7959749  68.3487847  58.8513181  50.5984917  69.0305593  57.9730915
  50.2884546  68.9362540  58.6865622  61.3579915  69.6221110  47.5255889
  62.0814113  70.0879223  47.3820462  60.9180506  69.6894720  46.7753486
  61.3995607  69.7004947  47.3940670  60.5266070  66.4818653  58.7756578
  59.9123063  65.9376703  59.0705213  61.0433355  65.9682889  58.2962394
  60.5121732  66.3255062  58.7480806  59.7662367  67.5522923  56.5100876
  59.3389975  66.9272641  56.0766312  59.7587311  67.2697845  57.3359884
  59.7021508  67.4175703  56.5680704  52.8824894  62.5888096  59.5789310
  53.0418381  61.8331420  59.9841032  52.7017788  63.1379035  60.2330048
  52.8790253  62.5581910  59.7352016  60.8245197  54.7549331  60.1340100
  60.3285758  54.9513006  59.4431667  61.5814259  55.1542000  59.9628901
  60.8632022  54.8427065  60.0060237  58.0948076  58.4291677  56.7243410
  58.1190564  57.8951790  56.0356190  58.3459550  57.9208986  57.3869001
  58.1357995  58.2752581  56.7208055  45.6055666  65.7123172  56.1586554
  45.4999115  65.6670017  55.2938638  44.8555886  66.0576953  56.4400839
  45.4791269  65.7564080  56.0723884  54.3749399  57.1562495  56.1049155
  54.4147770  57.6571702  56.8183862  53.5499063  57.2472889  55.8355078
  54.2588925  57.2444312  56.1699693  56.5579012  66.7223235  64.2069449
  55.7074642  66.8594950  64.3427094  56.7207139  65.9887014  64.6517151
  56.4562875  66.6337337  64.2925048  55.7963762  63.6723005  58.4023054
  54.9655692  63.8396823  58.1958302  55.7415279  63.2958956  59.1871939
  55.6653177  63.6412737  58.4871582  53.6047545  57.1631898  64.0379464
  54.2300249  56.6194031  64.3108897  53.1498025  56.6826816  63.4687255
  53.6295806  57.0121380  63.9941058  54.1699806  61.9478597  48.9313171
  54.3102767  62.4451061  49.6341813  54.6682339  61.2464891  49.0727385
  54.2640887  61.9180576  49.0564750  54.2000028  62.8145708  46.2605748
  54.8345108  63.4106133  46.1955210  54.2825639  62.5149165  47.0751618
  54.3056579  62.8586616  46.3708835  67.1782594  65.3461185  59.1292112
  67.7700434  65.9858436  59.1610310  67.6141589  64.6484222  59.4184179
  67.3301025  65.3379536  59.1772945  55.7779011  58.7459683  46.2351190
  56.0994852  58.2662766  45.5810452  56.0405955  59.5559329  46.0442002
  55.8645037  58.7949581  46.1106682  59.0075984  69.7678558  59.7550006
  58.5001075  70.3214404  60.1990637  58.7102630  69.8286848  58.9368781
  58.8880869  69.8584869  59.6998463  61.1738166  58.1331877  58.5974669
  61.5993238  57.6804404  57.9858196  60.5595159  57.5791948  58.8739457
  61.1466812  57.9845853  58.5479695  50.7053016  65.0113549  49.5295294
  51.2145246  65.6078056  49.9106600  51.1787288  64.7439522  48.8471714
  50.8496392  65.0599364  49.4849817  61.6183764  73.6841815  47.6853950
  60.9013074  73.5102678  47.2201187  62.2690502  73.4494388  47.1529436
  61.6085615  73.6237608  47.5383168  59.6132389  54.6046977  52.0065246
  58.9700707  54.4544623  52.5750385  59.2731796  54.3589322  51.2414351
  59.4677466  54.5459100  51.9768261  64.2031735  62.5606404  51.4295255
  63.5322925  63.1036106  51.3008320  64.8971486  63.0301259  51.1876950
  64.2060603  62.7104675  51.3750783  58.2518469  74.7003116  56.6607013
  58.0284124  73.9421945  57.0291040  57.7628313  74.7301137  55.9387453
  58.1461918  74.5925340  56.6083754  64.3659863  59.0162287  54.3385628
  64.7187473  58.5892010  55.0131427  63.5074664  58.9313131  54.4686704
  64.2909308  58.9407028  54.4580639  62.3643129  62.2797656  58.2870470
  62.3441056  62.0980951  59.1405249  62.4122329  63.1509675  58.2630054
  62.3677770  62.3814194  58.4093765  60.3089459  68.8684848  64.2118947
  60.2685313  68.2234525  63.6264103  61.1212777  68.8121465  64.5244359
  60.4232612  68.7643815  64.1715896  56.8996926  74.9203574  54.1144098
  56.4857325  74.2577704  53.7247939  57.5844300  75.0681433  53.5939792
  56.9395298  74.8444232  53.9800595  60.2662220  74.0793659  54.8667714
  59.8678504  74.1895930  54.0988535  59.6513440  74.2875726  55.4494274
  60.1161110  74.1267227  54.8399014  58.8390122  60.6867807  47.7341854
  58.2454962  61.0084804  47.1826421  58.8765400  59.8408902  47.5262960
  58.7564511  60.6092135  47.6224625  65.7983923  54.1380699  55.2669941
  65.2914788  53.4309839  55.1991118  66.5951357  53.8073888  55.3971017
  65.8411162  53.9853851  55.2768936  61.7147939  60.6447312  51.1643604
  61.4861632  60.6680013  50.3221963  61.9746015  59.8204779  51.2838615
  61.7194127  60.5263392  51.0568802  55.9967167  62.4981785  60.7668705
  55.4846070  61.8902968  61.1253736  55.8246663  63.2138377  61.2342680
  55.8956804  62.5145084  60.8884928  50.8432882  60.9419360  63.4171066
  50.6735472  61.6020735  62.8719273  50.3998832  61.1525921  64.1383555
  50.7532216  61.0705342  63.4432696  68.0004063  68.6545626  48.2510805
  68.3837669  69.4036982  48.4808902  67.2048176  68.9011446  47.9922794
  67.9397845  68.8015320  48.2468379  59.8736238  60.4206029  63.2070960
  60.4307668  60.1919839  62.5749426  59.5497303  61.1811695  62.9306172
  59.9082648  60.4989866  63.0727457  57.5919355  63.5073683  64.1722967
  58.3430682  63.8225359  64.4862521  57.7841931  63.3052853  63.3456889
  57.7310769  63.5241064  64.0966363  56.8119355  61.3265058  45.8271184
  57.1918319  61.3444687  45.0422299  56.0711951  61.7719046  45.7062031
  56.7588192  61.3946832  45.6934752  64.4404645  59.6347249  51.4146763
  64.4398871  59.4795905  52.2731039  64.2360825  60.4810236  51.3588148
  64.4104423  59.7367870  51.5334702  62.1645497  64.3144751  55.0682969
  62.6599162  63.5967746  55.0286990  61.3545273  64.0115548  54.9537456
  62.1189390  64.1642397  55.0456695  57.6104109  68.1642564  47.2179974
  56.8015431  67.8409237  47.1713283  58.1179018  67.4575786  47.1508223
  57.5653775  68.0123880  47.2010268  48.2394386  65.5914757  52.9427338
  47.3739905  65.5800448  52.8310109  48.3393202  65.4044980  53.7898478
  48.1268553  65.5620818  53.0516283  64.2297316  67.0648438  57.7560098
  64.6552388  66.5422860  57.2030523  63.8654236  67.6629276  57.2348721
  64.2383919  67.0758665  57.5969108  53.8651396  75.3612656  56.5157444
  54.1797955  76.1749044  56.5235226  54.2744809  74.9762874  57.1839603
  53.9719494  75.4241358  56.6161535  60.8175915  70.7782702  54.0861256
  61.2887094  71.4922965  54.2551241  61.1536094  70.1781453  54.6221125
  60.9371030  70.7954167  54.1893632  57.7345410  55.5510173  61.0419351
  57.8673316  54.7541166  61.3700326  58.1190563  56.0776576  61.6217626
  57.8101739  55.5110090  61.1762853  61.4549862  70.5700637  60.8488948
  60.9070808  69.9458520  60.5809014  61.9162890  70.7594909  60.1333028
  61.4417071  70.5059687  60.7039379  60.8077766  52.4740499  57.6400444
  60.0023729  52.3638229  57.9568282  60.6784501  52.5752955  56.7830310
  60.6697898  52.4724169  57.5608484  64.2643726  58.6385991  58.2340141
  63.6806715  59.1395198  57.8217708  64.5848020  58.1315547  57.6004464
  64.2256901  58.6377826  58.0798648  56.8038525  57.5526586  48.5098815
  57.6254220  57.7224899  48.2680510  56.3408176  57.7073847  47.7865113
  56.8569688  57.6008319  48.3670460  55.3933857  55.5469348  59.2897244
  55.9378270  55.2060475  59.8801586  55.4470793  56.4054810  59.4318529
  55.4822977  55.6224607  59.3979118  51.2064416  69.3085764  56.1636052
  51.8109273  69.2681598  55.5349873  50.9991728  70.1556916  56.1940108
  51.2653313  69.4273767  56.0752169  61.0208188  71.5751709  57.3798290
  61.8406562  71.4314675  57.6414585  60.7402266  72.1997908  57.9214727
  61.1004931  71.6462061  57.4986229  46.4415698  68.2920382  56.0334975
  46.3439976  67.4816653  56.3425032  47.2244568  68.2712175  55.6481243
  46.5431835  68.1687472  56.0221838  70.6921523  78.3192212  55.0994096
  69.8359419  78.4800710  55.1503213  70.7389177  77.4484276  55.1199157
  70.5720635  78.2143014  55.1100162  59.8512463  83.8893609  52.7546434
  59.6162648  83.0561261  52.6478703  59.9898104  84.1698274  51.9407635
  59.8368126  83.8077112  52.6188789  62.1502551  76.0579339  55.6530742
  61.5307583  75.4671986  55.4840757  62.0486414  76.6490774  55.0195065
  62.0440226  76.0583422  55.5335731  69.2470447  77.7978881  49.9863205
  69.9450611  77.9767009  50.4784668  69.5622779  77.2749220  49.3633594
  69.3965784  77.7472653  49.9665215  61.8771684  79.6031621  57.8974311
  61.7530381  80.1894066  58.5324130  62.5289968  79.1091817  58.1986586
  61.9545333  79.6170425  58.0360240  67.4197310  73.1671278  54.0684480
  67.0900640  73.6182421  53.3988178  66.7442312  73.0887441  54.6157486
  67.2707746  73.2222413  54.0507703  74.6273718  69.1556801  52.3134090
  74.3127159  69.8460279  52.7454513  74.1100660  69.1001583  51.6119591
  74.5038188  69.2491689  52.2731039  70.3162974  79.2990170  45.7047889
  70.5558978  79.5068154  44.8923232  70.6378815  78.4947679  45.8136834
  70.4000132  79.2104272  45.6008442  65.6253264  71.2283566  49.5507427
  66.3799232  71.5961883  49.3124477  65.4480799  71.6023120  50.3186607
  65.7107743  71.3381754  49.6292316  63.9810329  73.6353885  46.2485540
  63.7985902  73.8525766  45.4226533  64.8435942  73.7492898  46.3044155
  64.0814918  73.6843783  46.1340027  69.6610048  70.6380296  49.2834564
  70.3896208  70.4596251  48.8372720  69.7504941  71.4798375  49.4941742
  69.7816710  70.7364174  49.2488082  59.6214609  82.1142973  58.1456255
  59.3553024  81.2982090  58.3047245  59.6353173  82.1596129  57.2751771
  59.5839331  81.9999878  58.0409737  76.5996003  72.4420788  56.1798689
  77.2421911  72.5118893  56.7660604  76.8519023  71.7750011  55.6778231
  76.7318135  72.3547137  56.1925968  63.5272356  76.9128058  44.7608013
  62.8130533  76.6266237  45.1730446  64.0116325  77.2524683  45.4014401
  63.4931719  76.9209707  44.9163648  64.3713215  75.6521352  60.7923263
  63.6785012  75.1818331  61.0383994  64.9873543  75.4259656  61.3664970
  64.3597745  75.5488483  60.9132415  60.0308023  82.9001753  55.4267999
  59.8483596  82.8748639  54.5740292  60.7657691  83.3700690  55.4656908
  60.1122086  82.9663115  55.3065918  59.9978933  79.7795253  55.5767066
  60.5752436  79.6431704  56.2159311  59.2992995  79.3231037  55.8312650
  59.9799954  79.6917520  55.7089356  66.7546235  81.4329309  53.7905549
  66.4965479  80.6001044  53.7636849  66.8094718  81.6586922  52.9498050
  66.7246013  81.3427080  53.6625686  71.8347285  73.5357760  53.8909642
  71.1303612  73.0466945  54.0493561  71.8832260  73.5480234  53.0198086
  71.7377337  73.4647408  53.7848982  65.7280947  78.9867071  54.2770444
  65.1530538  79.1459240  54.9134405  65.3516624  78.3502481  53.8138895
  65.5883760  78.9164884  54.3025002  69.3954236  77.4590421  59.1362822
  69.0068669  77.0344638  58.4815014  68.7308934  77.7072570  59.6439849
  69.2401164  77.4329142  59.1150690  55.4737766  78.6307146  52.2914885
  55.5598018  78.2539015  53.0728415  56.1013564  78.2567592  51.8134843
  55.5794317  78.5192628  52.3360362  73.2180597  71.1565050  56.6486807
  73.5991109  70.4743221  57.0354681  72.4143882  70.8674652  56.4662471
  73.1557059  71.0132098  56.6790863  67.0103897  80.3812833  46.7986831
  67.3949050  80.1620539  47.5503376  66.7615518  81.2075778  46.9287907
  67.0305970  80.4710979  46.9287907  64.7304335  72.0509769  52.1295611
  63.8626760  72.1232369  52.1953221  65.0179539  72.8531848  52.3183586
  64.6444083  72.1803916  52.1670378  73.8537224  72.1987629  60.4606933
  74.5990816  72.0097439  60.0470359  73.4374528  72.7245867  59.9020790
  73.9022198  72.2489774  60.3171506  64.1450003  82.6658407  54.2035053
  63.8563251  82.0395879  54.7380780  65.0133351  82.6078695  54.2699733
  64.2310255  82.5645952  54.2926007  62.6571687  75.5268029  49.5712488
  62.3696483  75.1569299  48.8344435  63.3442155  75.9962884  49.3096193
  62.7160584  75.5414998  49.4227563  65.4925358  79.3920977  51.0179892
  66.2148010  79.5562135  50.5583698  65.0133351  80.1130642  50.9119232
  65.5289089  79.5219206  50.9345506  73.4518866  75.7284776  56.3976577
  72.6129967  75.7546054  56.1614841  73.5223233  76.3755511  56.9781924
  73.3387260  75.8280901  56.4485694  71.8988144  72.6270153  51.1304193
  72.6014497  72.4277901  50.6524151  71.6332333  71.8546095  51.4373037
  71.9634777  72.4833119  51.1049635  60.2299881  76.3049241  50.4197769
  60.3316018  77.1075402  50.7478744  61.0255768  76.1036577  50.1220849
  60.3627787  76.3935140  50.4233124  66.6616701  73.8905438  60.1835074
  66.4699898  73.9060572  61.0334497  67.5115296  74.0869112  60.1601729
  66.7592422  73.9219789  60.3058369  61.0463614  76.4196419  58.1618890
  60.9049105  75.5680360  58.2863398  61.3304177  76.4625080  57.3381096
  61.0671460  76.2996169  58.0586514  71.2002206  78.2563509  52.3063379
  70.9536920  78.1759260  53.1400167  71.5287329  77.4716977  52.1125906
  71.2123449  78.1289775  52.4010902  69.5720928  74.0860947  60.3906897
  70.0293542  74.8184921  60.5179689  69.6477256  73.6627412  61.1494153
  69.6511897  74.1318185  60.5207973  61.8153919  74.3326767  61.4796341
  61.2796108  73.7207125  61.7957108  61.8771684  74.9074903  62.1330007
  61.7449551  74.3273695  61.6231767  74.0448254  67.2650822  54.2600740
  74.1631822  67.7227286  53.5268043  73.8710429  66.4596084  53.9736957
  74.0367424  67.2144594  54.1101674  67.4503305  76.0763051  57.2348721
  66.6599380  75.8954511  57.5566057  67.8463928  75.2990004  57.2179015
  67.3920182  75.9350512  57.2801269  63.9342675  81.7407501  51.2916395
  64.0907294  81.6754304  52.1472387  64.2743268  82.5156053  51.0795075
  64.0075909  81.8456699  51.3870989  71.6211089  76.0101689  60.2132059
  71.8353058  75.3712603  59.6595413  71.0044988  76.4547513  59.7839921
  71.5616418  75.9811833  60.0682490  60.5076936  78.9242451  51.6077162
  60.8875901  79.3426996  50.9437430  59.9332301  79.5055907  51.9146006
  60.4788261  79.0720310  51.5553903  71.0125817  69.1201625  55.2019402
  70.1419375  69.0940346  55.1552711  71.2666159  68.9478817  54.3845247
  70.9219377  69.0911768  55.0739539  68.0374958  71.1307853  56.6592872
  67.5213446  70.4388045  56.7844451  67.4768887  71.7978630  56.6055471
  67.8781471  71.1271111  56.6698938  70.1067191  71.6700813  58.4885725
  69.7198944  71.6949845  59.2699255  69.6200129  71.1042492  58.0360241
  69.9779700  71.5896564  58.5373628  69.7724333  68.5567799  60.7795985
  70.4017451  69.0928099  60.5017055  69.9410196  68.4645158  61.6309550
  69.8902128  68.6229161  60.8644513  64.1507738  80.4902856  56.2392657
  63.3095744  80.3906730  56.4471551  64.3597746  81.2598336  56.5906978
  64.0572430  80.5894899  56.3219972  61.6283305  78.1122393  54.0677408
  61.2340002  78.1865405  53.2927517  61.0723421  78.4980339  54.6185769
  61.4886117  78.1804168  54.0345067  73.2648251  71.0903687  53.7481286
  73.4697845  71.0225995  54.5938284  72.9374675  71.8962508  53.6802464
  73.2463499  71.1989628  53.8640942  67.9624403  78.4184255  55.4890254
  67.6587540  77.8640244  56.0900662  67.2603823  78.5976465  55.0018289
  67.8140612  78.3629038  55.5059960  67.0190500  75.7284775  50.0534956
  67.2950234  75.0103688  49.6412524  67.6189169  76.3269695  49.8456062
  67.1483764  75.7105146  49.9615717  76.5181939  71.6435451  53.2284052
  75.9056253  72.1305854  53.6137784  76.6146114  70.9678942  53.7721703
  76.4419837  71.6153760  53.3662910  70.5201020  73.3998293  48.3281551
  70.9744767  73.5708853  49.0529396  70.9941066  72.7866403  47.9279327
  70.6569340  73.3349178  48.3755313  64.0416546  82.8846618  57.6584290
  63.4504479  83.5256117  57.6287305  64.8037569  83.3084236  57.6315589
  64.0664806  83.0422457  57.6499437  64.4377168  74.0448616  58.3252307
  64.8978650  74.1187546  59.0627431  64.4833275  74.8429870  57.9752129
  64.5127724  74.1742763  58.3825064  67.8614040  80.1040827  49.4326559
  68.6056085  80.4915103  49.6709508  68.0074736  79.2598252  49.5967046
  67.9924625  80.0371300  49.4920528  69.7793616  71.8991086  54.4658420
  68.9329661  72.0713894  54.3399770  69.7764748  71.0940430  54.8024248
  69.6540766  71.8052115  54.4969547  70.8491916  75.6766300  55.3320478
  70.3751870  75.1508062  55.8425789  71.2210052  75.1295773  54.7635339
  70.8341805  75.5182297  55.3235625  61.2264946  77.6737807  60.7004024
  62.0890559  77.5733516  60.6141353  60.8956729  77.0932516  60.1389596
  61.3050143  77.5729434  60.6049429  72.7775416  76.5702855  48.3946232
  72.2498434  76.6531599  47.7051941  73.2371124  77.3120726  48.3910876
  72.7677266  76.6923517  48.2920927  64.5866732  76.4980256  57.3614442
  63.9619802  76.5098648  56.7540395  64.2512327  76.9740431  58.0105682
  64.4452224  76.5698773  57.3671010  64.7708481  74.8405374  43.4187127
  64.4221285  75.4925100  43.8818676  64.2904927  74.8262487  42.6910998
  64.6478725  74.9348428  43.3798218  61.2992408  84.5580716  58.8018206
  60.7692332  83.8673155  58.8513181  61.5717501  84.5490901  57.9730915
  61.2617130  84.4547848  58.6865622  63.8557477  78.1073404  59.5789310
  64.0150964  77.3516728  59.9841032  63.6750371  78.6564343  60.2330048
  63.8522836  78.0767217  59.7352016  71.7977780  70.2734639  60.1340100
  71.3018342  70.4698313  59.4431667  72.5546843  70.6727307  59.9628901
  71.8364605  70.3612373  60.0060237  69.0680660  73.9476985  56.7243410
  69.0923147  73.4137097  56.0356190  69.3192134  73.4394294  57.3869001
  69.1090579  73.7937889  56.7208055  56.5788250  81.2308480  56.1586554
  56.4731699  81.1855324  55.2938638  55.8288470  81.5762261  56.4400839
  56.4523853  81.2749388  56.0723884  65.3481982  72.6747803  56.1049155
  65.3880354  73.1757010  56.8183862  64.5231647  72.7658197  55.8355078
  65.2321508  72.7629620  56.1699693  66.7696346  79.1908313  58.4023054
  65.9388275  79.3582131  58.1958302  66.7147863  78.8144264  59.1871939
  66.6385761  79.1598045  58.4871582  64.5780129  72.6817206  64.0379464
  65.2032832  72.1379339  64.3108897  64.1230609  72.2012124  63.4687255
  64.6028390  72.5306687  63.9941058  65.1432390  77.4663905  48.9313171
  65.2835351  77.9636369  49.6341813  65.6414922  76.7650199  49.0727385
  65.2373470  77.4365884  49.0564750  65.1732612  78.3331016  46.2605748
  65.8077691  78.9291441  46.1955210  65.2558223  78.0334473  47.0751618
  65.2789163  78.3771924  46.3708835  66.7511595  74.2644991  46.2351190
  67.0727436  73.7848074  45.5810452  67.0138538  75.0744637  46.0442002
  66.8377620  74.3134889  46.1106682  72.1470750  73.6517185  58.5974669
  72.5725821  73.1989712  57.9858196  71.5327743  73.0977256  58.8739457
  72.1199395  73.5031161  58.5479695  61.6785600  80.5298857  49.5295294
  62.1877829  81.1263364  49.9106600  62.1519872  80.2624830  48.8471714
  61.8228975  80.5784672  49.4849817  70.5864973  70.1232285  52.0065246
  69.9433291  69.9729931  52.5750385  70.2464380  69.8774630  51.2414351
  70.4410050  70.0644407  51.9768261  75.3392447  74.5347595  54.3385628
  75.6920057  74.1077318  55.0131427  74.4807248  74.4498439  54.4686704
  75.2641891  74.4592336  54.4580639  64.0376132  77.1655115  52.3968475
  63.3188121  77.5819248  52.6641338  64.4088494  77.7309354  51.8460113
  63.9868063  77.3104397  52.3551282  69.8122706  76.2053115  47.7341854
  69.2187545  76.5270111  47.1826421  69.8497984  75.3594210  47.5262960
  69.7297095  76.1277443  47.6224625  76.7716507  69.6566007  55.2669941
  76.2647371  68.9495147  55.1991118  77.5683940  69.3259196  55.3971017
  76.8143746  69.5039159  55.2768936  72.6880522  76.1632619  51.1643604
  72.4594215  76.1865321  50.3221963  72.9478599  75.3390087  51.2838615
  72.6926711  76.0448699  51.0568802  61.8165466  76.4604668  63.4171066
  61.6468056  77.1206043  62.8719273  61.3731415  76.6711229  64.1383555
  61.7264799  76.5890650  63.4432696  65.7425285  74.7009166  52.4597800
  66.2182651  75.0626246  51.8247981  65.2413885  75.3565633  52.7397943
  65.7390644  74.8503355  52.4074541  58.7167530  79.3651533  58.6759556
  58.1694250  78.6952179  58.7940424  59.5059908  78.9981381  58.7403023
  58.7519714  79.2116520  58.7028257  67.7851938  76.8450366  45.8271184
  68.1650903  76.8629995  45.0422299  67.0444534  77.2904354  45.7062031
  67.7320776  76.9132140  45.6934752  75.4137229  75.1532557  51.4146763
  75.4131455  74.9981213  52.2731039  75.2093409  75.9995544  51.3588148
  75.3837007  75.2553178  51.5334702  57.4754500  78.5772341  55.8305579
  57.2976261  78.1248950  56.5560495  57.1873522  79.3798503  56.0144057
  57.4067453  78.6294899  55.9649082  59.2126969  81.1100065  52.9427338
  58.3472489  81.0985755  52.8310109  59.3125785  80.9230288  53.7898478
  59.1001136  81.0806126  53.0516283  68.7077994  71.0695481  61.0419351
  68.8405900  70.2726474  61.3700326  69.0923147  71.5961884  61.6217626
  68.7834323  71.0295398  61.1762853  71.7810349  67.9925807  57.6400444
  70.9756313  67.8823537  57.9568282  71.6517085  68.0938263  56.7830310
  71.6430482  67.9909477  57.5608484  75.2376310  74.1571299  58.2340141
  74.6539299  74.6580505  57.8217708  75.5580604  73.6500855  57.6004464
  75.1989485  74.1563134  58.0798648  67.7771109  73.0711894  48.5098815
  68.5986803  73.2410207  48.2680510  67.3140760  73.2259155  47.7865113
  67.8302271  73.1193627  48.3670460  66.3666441  71.0654656  59.2897244
  66.9110854  70.7245783  59.8801586  66.4203376  71.9240118  59.4318529
  66.4555560  71.1409915  59.3979118  62.1797000  84.8271072  56.1636052
  62.7841857  84.7866906  55.5349873  61.9724312  85.6742224  56.1940108
  62.2385897  84.9459075  56.0752169  57.4148282  83.8105690  56.0334975
  57.3172560  83.0001961  56.3425032  58.1977151  83.7897483  55.6481243
  57.5164418  83.6872780  56.0221838  20.8783153   2.7191829  37.7971375
  20.1266052   2.3407368  37.5687420  21.3269164   2.7510263  37.0490185
  20.8332819   2.6677436  37.6528877  29.8035729  -0.5484363  51.6394599
  30.5102497  -1.0432332  51.7681534  29.9923665  -0.1075281  50.9097257
  29.9363635  -0.5566013  51.5503645  26.3308112   3.1417199  33.2256922
  25.9959481   3.8194120  32.7901144  26.8434983   2.7522510  32.6373793
  26.3573694   3.1841777  33.0743713  25.8712404   5.0931468  39.1668033
  26.2551783   5.6618366  38.6272809  25.8071545   4.3680978  38.6873849
  25.9185831   5.0706931  39.0161896  29.3393834  -4.7578845  44.6765795
  29.8849794  -4.0793758  44.7359764  29.2810710  -4.8991384  43.8167376
  29.4109748  -4.6786843  44.5577855  22.4567909   2.7310221  40.0634147
  22.5578272   1.9210575  40.3731275  21.8609654   2.6367168  39.4333826
  22.3840447   2.5975250  40.0160386  31.1158903  -3.3294238  35.5499523
  30.9998429  -2.5786551  35.9791661  31.9114789  -3.5870284  35.7995610
  31.2163492  -3.2559391  35.6503614  22.2968648   7.6487811  41.4649003
  22.9406104   8.0900975  41.8545162  22.6224904   6.8441237  41.3779262
  22.4400477   7.5953005  41.5094481  22.9989228   0.6599785  36.8368865
  23.3205069   1.2004993  36.2330173  23.6461325   0.0896557  36.9691155
  23.1415283   0.6558961  36.7675900  25.2378872  -0.9513775  36.9083043
  25.6772507  -1.5596674  37.3537816  25.0883534  -1.3306401  36.1368508
  25.2800337  -1.0975303  36.8602211  22.7050515  -2.3569763  44.1101869
  23.3499517  -2.8497320  43.7912817  22.9452292  -2.2144976  44.9367947
  22.8361100  -2.4092320  44.1851402  25.2436606   0.4885143  43.7608761
  25.5259849  -0.3063451  43.5395517  25.9722766   0.9665731  43.7813822
  25.3926170   0.4419740  43.7311776  28.8388208  -2.5986593  33.8613812
  28.7539503  -1.7425627  34.0063381  29.3272591  -2.8742269  34.5295972
  28.8977105  -2.5129272  33.9815894  29.7706641  -5.9801799  35.3611548
  29.2418113  -5.7642166  36.0208854  30.2931661  -5.2865661  35.2812517
  29.7695094  -5.8458662  35.4467147  35.2254694  -0.4055495  40.7344592
  34.3952397  -0.1944851  40.8978009  35.1763947  -1.2318440  40.4586876
  35.0961430  -0.4965888  40.7181957  17.2150278   3.6316179  40.9642687
  16.7317856   4.3566668  40.9402271  18.0273596   3.9292309  41.0752845
  17.2641025   3.7818533  40.9769966  23.2864432   2.4248360  43.5692502
  22.7691373   2.0655775  42.9653810  23.9838823   1.9010534  43.5798568
  23.3130013   2.2946047  43.4822760  26.9428024   2.8743174  49.5308675
  27.0311370   2.6869314  50.3786885  27.3717736   2.2280603  49.1313521
  27.0190126   2.7506181  49.5980426  24.5098484   2.1574334  48.5126337
  23.9469318   1.7446943  49.0365998  25.2719507   2.0827239  48.9319480
  24.5392932   2.0851734  48.6519337  20.0694475   4.1472355  41.1162967
  20.7715054   3.6324344  41.1735723  19.9891958   4.4746506  41.9209842
  20.1618235   4.1186581  41.2435759  19.3945250   0.3378707  40.6248575
  20.2334150   0.5701640  40.6722337  19.4257020  -0.5316982  40.5555610
  19.5226968   0.2435653  40.6213220  20.0197953   0.7579582  44.9261880
  20.5596178   0.6150713  45.5965253  19.3367900   1.1576333  45.2945907
  19.9990107   0.7959253  45.0796302  29.4438838  -3.5629417  40.1206905
  30.1996353  -3.1297903  40.1595814  29.5501163  -4.2124648  40.6941541
  29.5709009  -3.5951934  40.2104930  32.4819009   0.2643860  40.8709308
  32.0454241   0.2680602  41.6268279  32.1481925   0.9449359  40.4388885
  32.3681629   0.3656316  40.9190140  27.0548083   2.3052193  52.1952458
  27.8388500   2.4183040  52.5608200  26.8544678   1.4793330  52.3911144
  27.1414108   2.1998912  52.2786844  27.2118476   4.2162295  45.8418914
  26.4133722   3.9761795  46.0992782  27.6604488   4.2676688  46.5885961
  27.1593088   4.1884686  45.9903838  35.6163356  -3.0175220  39.7628945
  36.2779790  -3.5784552  39.6624854  34.9754768  -3.5123190  40.0881636
  35.6192223  -3.1738811  39.7961285  26.5040163   0.2794911  32.0709868
  26.9191312  -0.0520065  31.3794364  25.6732093   0.0463813  31.9430005
  26.4428172   0.1966167  31.9500716  31.9028186  -2.0009838  39.5040934
  32.1383776  -1.8564639  38.6767784  32.0517750  -1.2367430  39.8972447
  31.9593990  -1.8670784  39.4404538  33.7318643  -3.1608172  37.3410538
  34.0626860  -2.6280532  36.7350632  34.3051731  -3.1069284  37.9972489
  33.8652322  -3.0738603  37.3488319  26.2719213  -2.0377260  53.7339102
  25.4792194  -1.7233749  53.9191722  26.3868140  -1.8225792  52.8959887
  26.1714624  -1.9593424  53.6377437  28.9450532  -5.3143269  38.0234118
  29.0397387  -4.5753975  38.4773743  28.3209376  -5.7425794  38.4568682
  28.8659562  -5.2681949  38.1542265  27.2003006  -2.1357057  48.6724399
  27.7741868  -2.7729812  48.8272963  27.1217810  -2.1352974  47.8034056
  27.2736241  -2.2291945  48.5670810  29.1973554  -3.4694529  31.2571070
  29.1153716  -3.3992342  32.1226057  29.8353274  -2.9064786  31.0654810
  29.2793391  -3.3755558  31.3561019  26.3013664  -3.4474075  34.2679676
  27.1154303  -3.1559182  34.1562448  26.2372805  -4.1014213  33.6937969
  26.4116403  -3.5008880  34.1668514  32.5223154  -0.7648079  48.6809252
  32.2861791  -1.5960014  48.5621312  33.1666383  -0.8162472  49.2664096
  32.5817825  -0.8950391  48.7495145  22.1721572   0.0247442  39.3951988
  22.8095519  -0.2140810  39.9403782  22.5976644   0.2284601  38.6605149
  22.3297738   0.0198452  39.3669146  16.8634214   2.2635779  43.2786292
  16.9038360   2.5350630  42.4506072  17.4228738   2.7877687  43.6944080
  16.9517560   2.3811534  43.2178180  33.5459575  -0.9803630  44.7437546
  33.2405392  -0.2475573  45.1050862  32.8265790  -1.3865701  44.4630332
  33.3946917  -0.9321897  44.7550683  24.5543044   0.5019865  41.0745775
  24.6282052   0.3395037  41.9287624  25.3712550   0.6910054  40.8306256
  24.6859403   0.5056607  41.1643800  18.3148801   0.8477728  38.1040218
  17.4886918   1.0939465  37.9774497  18.3760792   0.7689809  38.9702276
  18.2022968   0.8722677  38.2129162  23.0947630   3.4654608  35.8059248
  23.3845928   3.0743589  35.0818475  23.8251111   3.6471313  36.2464523
  23.2454514   3.4348422  35.7642055  23.6842375  -1.7327646  46.8912378
  23.1854069  -1.0211878  46.9697267  24.4942599  -1.4126980  46.8530541
  23.7298482  -1.5800798  46.8968947  21.0353545   5.4421990  38.8719398
  20.8153841   5.1519345  39.6646065  20.8148067   4.7836945  38.3437310
  20.9701139   5.3021699  38.9108306  23.2021501   6.8151380  37.6550090
  23.8545559   6.2827823  37.8841116  22.5047110   6.4620033  38.0417964
  23.1952219   6.6840903  37.7462258  20.1502766  -0.8309442  37.0617464
  20.9048734  -0.4496403  37.2752927  19.5573379  -0.3798298  37.5164161
  20.1739479  -0.7080615  37.1600343  31.1961419  -0.8644206  36.9981069
  31.7619452  -0.2050996  36.9139612  30.5489323  -0.5194508  37.4697471
  31.1840176  -0.7162264  37.0553826  21.4700992   0.3399119  42.4357580
  20.9481746   0.4799411  43.1209444  21.8575013  -0.4190216  42.6259697
  21.4504693   0.2484643  42.5658656  27.6667997   2.0794579  36.4218149
  27.4254673   1.3462439  36.0145213  27.8469330   2.6281436  35.7684482
  27.6575621   2.0516970  36.2648371  22.8967318  -2.6296862  37.8339071
  22.7010101  -2.0222127  37.2399374  23.1201664  -3.3228918  37.3530745
  22.9001959  -2.6419336  37.6755152  33.1296879  -4.2010338  40.6177866
  33.0430854  -4.0454912  41.4712645  32.6747359  -3.5572263  40.2437271
  33.0500136  -4.0834583  40.6884973  30.8970744  -0.1716232  43.0290207
  30.7585104   0.5264814  43.5338949  30.1170742  -0.3267575  42.6726388
  30.7613971  -0.0916065  43.0516481  29.2348830  -3.8719856  49.2812588
  29.2296868  -4.7440040  49.2855015  29.9409823  -3.6731687  48.8082044
  29.3393834  -3.9715982  49.2119624  22.0347478   4.0459899  45.5187435
  22.1837042   3.4862815  44.8660840  22.8147480   4.1251901  45.9019954
  22.1721571   3.9745465  45.4784384  32.3924117  -0.8137978  33.7906706
  32.0130926  -1.6000840  33.7835995  31.7290363  -0.2651121  33.6478350
  32.2382592  -0.8493154  33.7687503  24.5600778   4.2174542  46.7971926
  24.4844450   3.5483353  47.3522714  24.4890638   4.9192330  47.3112592
  24.5381385   4.2219450  46.9548774  25.2171025   2.7375541  37.6295532
  25.9820916   2.4685185  37.3078196  25.1149115   2.2525551  38.3465595
  25.3152521   2.6265106  37.6875360  27.7389686  -0.2312275  29.6095481
  28.5062671  -0.1712150  29.2001333  27.2920995  -0.8031834  29.1251800
  27.7863113  -0.3075699  29.4773192  28.6367481  -1.4257619  41.8948214
  27.9612483  -1.6572387  42.3961601  28.6459858  -2.0336436  41.2690319
  28.5385986  -1.5498694  41.8764366  30.6384216   1.4307513  34.1258392
  30.7204053   2.2374499  33.8019843  31.1233958   1.4503472  34.8499165
  30.7221374   1.5528175  34.1845290  23.9492413   7.6242862  45.2549927
  24.4388343   6.9253651  45.0725592  23.3776645   7.3266732  45.8425984
  23.9376943   7.4769086  45.3150968  26.2742309  -4.0197716  37.0949805
  26.8157854  -4.5227335  37.5588426  26.5888868  -4.0732521  36.2839291
  26.4006706  -4.1018295  37.0433617  30.1459416   0.1904931  54.2076718
  30.9594282  -0.0809920  54.3681850  29.9854383  -0.1087529  53.4036913
  30.2429365   0.1059857  54.1122123  24.4428759   1.3719636  34.3789833
  24.5121579   0.5134174  34.5182834  25.2217214   1.5891516  34.0508858
  24.5681609   1.2772499  34.3506991  28.8336246   3.7957337  38.5926327
  28.4416038   3.4924052  37.8749193  28.9889318   4.6326427  38.4031280
  28.7989836   3.8741174  38.4582824  28.9975921   0.3607326  38.5332357
  28.6390576   0.5321969  39.3096390  28.5114632   0.8220531  37.9760356
  28.8734618   0.4546297  38.5657626  30.1580660   1.2511222  49.4799558
  30.7960381   0.7571417  49.1462014  29.5154752   1.1788622  48.8951785
  30.1574887   1.1670230  49.3441913  30.2134917   1.9431030  46.1204915
  31.0027295   1.5920095  46.2406997  30.3878515   2.7567418  45.8581549
  30.3555199   2.0116887  46.0992783  21.8263243   0.4970875  47.1302399
  21.7183598   0.5072938  47.9964457  22.0359025   1.3225656  46.9407353
  21.8413354   0.6211950  47.2306491  35.9627457  -2.4210712  45.5901615
  36.0210580  -1.9724064  46.3361591  35.3293924  -2.0111900  45.1531695
  35.8778752  -2.2936978  45.6354163  29.6026551   3.1992830  42.0256361
  29.4046240   3.6883644  41.3312572  28.9814262   3.4034071  42.6040494
  29.4814116   3.3009368  42.0079584  32.9149136  -4.3994425  43.6767305
  32.6747359  -5.2388010  43.6809732  33.3941143  -4.3194258  44.4008079
  32.9501320  -4.5113025  43.7842108  31.5200353  -3.2343018  47.5601609
  32.2434552  -3.6870492  47.3812629  31.2550316  -2.9538353  46.7773937
  31.5881627  -3.2592050  47.4180325  28.1332988   0.0043318  34.4595936
  28.8567187   0.4701431  34.3160509  27.6933579   0.0716927  33.7093533
  28.1748680   0.0827154  34.3280717  27.3019143  -3.1359140  45.7096625
  26.6876136  -3.6801090  46.0045260  27.8186428  -3.6494903  45.2302441
  27.2874805  -3.2922731  45.6820853  26.5415440  -2.0654870  43.4440923
  26.1143048  -2.6905151  43.0106359  26.5340384  -2.3479948  44.2699930
  26.4774581  -2.2002089  43.5020751  23.3332085  -2.8954557  51.1409496
  22.4827715  -2.7582843  51.2767141  23.4960213  -3.6290779  51.5857198
  23.2315948  -2.9840456  51.2265095  25.7829057   0.1500765  46.6890053
  25.2754148   0.7036612  47.1330684  25.4855703   0.2109055  45.8708828
  25.6633942   0.2407076  46.6338510  28.3936837   4.0664023  34.6193997
  27.6766147   3.8924885  34.1541234  29.0443575   3.8316595  34.0869483
  28.3838688   4.0059815  34.4723215  25.0271542   5.0825323  43.5947060
  24.8037197   4.3244153  43.9631086  24.5381386   5.1123344  42.8727500
  24.9214991   4.9747548  43.5423801  27.0842532  -0.7492945  51.1458994
  27.0438387  -1.3943268  50.5604150  27.8965850  -0.8056327  51.4584406
  27.1985685  -0.8533978  51.1055943  23.6749999   5.3025781  41.0484145
  23.2610398   4.6399912  40.6587986  24.3597374   5.4503640  40.5279839
  23.7148371   5.2266440  40.9140642  27.0415294   4.4615867  41.8007761
  26.6431577   4.5718137  41.0328581  26.4266513   4.6697933  42.3834321
  26.8914183   4.5089435  41.7739061  34.7757136  -0.9632167  35.1850852
  35.1590742  -0.2140811  35.4148949  33.9801250  -0.7166347  34.9262841
  34.7150918  -0.8162473  35.1808425  28.9398570  -5.3033042  42.0023016
  29.4352236  -6.0210047  41.9627037  28.1298346  -5.6062244  41.8877503
  28.8942464  -5.4535396  41.9796742  24.3857182  -1.4535229  34.1520021
  23.5768505  -1.7768555  34.1053330  24.8932091  -2.1602007  34.0848269
  24.3406849  -1.6053912  34.1350315  31.0050389  -2.5529354  44.6900145
  31.4305461  -3.0754933  44.1370570  30.6407309  -1.9548517  44.1688768
  31.0136992  -2.5419127  44.5309155  20.6404469   5.7434863  43.4497491
  20.9551028   6.5571251  43.4575272  21.0497882   5.3585082  44.1179650
  20.7472567   5.8063565  43.5501582  27.5928989   1.1604910  41.0201303
  28.0640167   1.8745172  41.1891288  27.9289167   0.5603660  41.5561172
  27.7124104   1.1776374  41.1233678  29.6805973   2.7706223  53.1993375
  29.7902939   1.9814784  53.5550122  30.0096870   2.6812159  52.3967713
  29.7458379   2.6412076  53.1335765  28.2302935   0.9522844  47.7828995
  27.6823881   0.3280728  47.5149060  28.6915964   1.1417116  47.0673075
  28.2170144   0.8881894  47.6379426  27.7961261   1.9573917  44.3138336
  28.6159635   1.8136883  44.5754632  27.5155339   2.5820116  44.8554774
  27.8758005   2.0284269  44.4326276  44.2674912   9.6138768  37.2781213
  44.2368916  10.4683405  37.4499482  44.8656260   9.3134061  37.8367356
  44.3512070   9.6955265  37.3856015  37.4674597   8.7014419  42.0334143
  36.6112492   8.8622918  42.0843260  37.5142250   7.8306483  42.0539204
  37.3473708   8.5965221  42.0440209  31.8515736  18.2377137  37.7971375
  31.0998636  17.8592676  37.5687420  32.3001748  18.2695571  37.0490185
  31.8065403  18.1862744  37.6528877  40.7768313  14.9700945  51.6394599
  41.4835080  14.4752976  51.7681534  40.9656248  15.4110026  50.9097257
  40.9096219  14.9619295  51.5503645  40.3126418  10.7606463  44.6765795
  40.8582378  11.4391550  44.7359764  40.2543294  10.6193924  43.8167376
  40.3842332  10.8398465  44.5577855  33.4300492  18.2495529  40.0634147
  33.5310855  17.4395883  40.3731275  32.8342238  18.1552476  39.4333826
  33.3573031  18.1160557  40.0160386  42.0891486  12.1891070  35.5499523
  41.9731012  12.9398756  35.9791661  42.8847373  11.9315024  35.7995610
  42.1896076  12.2625917  35.6503614  26.6265537  14.2715816  39.6886481
  26.3915721  13.4383468  39.5818750  26.7651177  14.5520482  38.8747682
  26.6121199  14.1899319  39.5528836  28.9255624   6.4401547  42.5870789
  28.3060656   5.8494194  42.4180803  28.8239488   7.0312982  41.9535112
  28.8193300   6.4405629  42.4675778  33.9721812  16.1785093  36.8368865
  34.2937653  16.7190301  36.2330173  34.6193908  15.6081865  36.9691155
  34.1147867  16.1744269  36.7675900  36.0223520   8.1801088  36.9203252
  36.7203684   8.3589216  37.4124715  36.3375852   7.6571428  36.2973641
  36.1718857   8.1294860  36.9005262  28.6524757   9.9853828  44.8314358
  28.5283454  10.5716274  45.4664176  29.3043042   9.4914024  45.1326633
  28.7298406   9.9992633  44.9700287  36.2111455  14.5671533  36.9083043
  36.6505091  13.9588634  37.3537816  36.0616118  14.1878907  36.1368508
  36.2532921  14.4210005  36.8602211  33.6783098  13.1615545  44.1101869
  34.3232101  12.6687988  43.7912817  33.9184875  13.3040332  44.9367947
  33.8093683  13.1092987  44.1851402  34.1950383   3.5493485  41.0024526
  33.8653713   4.0004629  40.3328225  33.5195385   3.4709648  41.5497533
  34.0460820   3.6044620  40.9847750  39.8120792  12.9198715  33.8613812
  39.7272087  13.7759681  34.0063381  40.3005175  12.6443039  34.5295972
  39.8709689  13.0056036  33.9815894  41.4026791  -0.4620992  39.2474137
  41.0880232   0.2282487  39.6794559  40.8853733  -0.5176210  38.5459638
  41.2791262  -0.3686104  39.2071086  40.7439225   9.5383509  35.3611548
  40.2150696   9.7543142  36.0208854  41.2664245  10.2319647  35.2812517
  40.7427678   9.6726646  35.4467147  32.6338833  13.4346726  34.1619016
  32.0496048  13.9396757  34.5684879  32.2308928  13.2089113  33.4215607
  32.4878137  13.4754974  34.1124041  28.1882861  19.1501487  40.9642687
  27.7050440  19.8751976  40.9402271  29.0006180  19.4477617  41.0752845
  28.2373609  19.3003840  40.9769966  34.2597015  17.9433667  43.5692502
  33.7423957  17.5841082  42.9653810  34.9571407  17.4195842  43.5798568
  34.2862597  17.8131355  43.4822760  35.4831067  17.6759641  48.5126337
  34.9201902  17.2632251  49.0365998  36.2452091  17.6012547  48.9319480
  35.5125516  17.6037042  48.6519337  37.0916047   9.6812378  32.6387936
  37.3312051   9.8890361  31.8263279  37.4131888   8.8769886  32.7476881
  37.1753205   9.5926479  32.5348489  32.4006337   1.6105773  36.4847474
  33.1552305   1.9784091  36.2464524  32.2233872   1.9845328  37.2526654
  32.4860816   1.7203961  36.5632363  31.0427059  19.6657663  41.1162967
  31.7447638  19.1509652  41.1735723  30.9624542  19.9931814  41.9209842
  31.1350819  19.6371889  41.2435759  45.6941236   7.7600214  44.5295013
  44.8569657   7.8302401  44.7642608  45.6629467   7.7624709  43.6569316
  45.5659519   7.7710441  44.4354561  32.0905965   9.9033250  50.2443382
  32.2626469   9.7939144  51.0928663  32.6275323  10.5487655  50.0074574
  32.1950969   9.9825251  50.3348479  30.7563402   4.0176092  33.1825587
  30.5738975   4.2347973  32.3566580  31.6189015   4.1315105  33.2384201
  30.8567992   4.0665990  33.0680074  30.3677834  15.8564015  40.6248575
  31.2066733  16.0886947  40.6722337  30.3989603  14.9868326  40.5555610
  30.4959552  15.7620961  40.6213220  30.9930537  16.2764890  44.9261880
  31.5328762  16.1336021  45.5965253  30.3100483  16.6761641  45.2945907
  30.9722691  16.3144561  45.0796302  36.4363121   1.0202503  36.2174611
  37.1649282   0.8418458  35.7712767  36.5258014   1.8620583  36.4281789
  36.5569783   1.1186382  36.1828129  40.4171422  11.9555890  40.1206905
  41.1728937  12.3887405  40.1595814  40.5233746  11.3060660  40.6941541
  40.5441593  11.9233374  40.2104930  38.0280667  17.8237501  52.1952458
  38.8121083  17.9368348  52.5608200  37.8277261  16.9978638  52.3911144
  38.1146692  17.7184220  52.2786844  26.3967682  12.4965181  45.0796302
  26.1306097  11.6804297  45.2387292  26.4106246  12.5418336  44.2091818
  26.3592404  12.3822085  44.9749784  43.3749076   2.8242996  43.1138736
  44.0174984   2.8941100  43.7000651  43.6272097   2.1572218  42.6118278
  43.5071208   2.7369344  43.1266015  30.3025429   7.2950265  31.6948060
  29.5883606   7.0088445  32.1070493  30.7869398   7.6346891  32.3354448
  30.2684792   7.3031915  31.8503695  31.1466288   6.0343559  47.7263310
  30.4538085   5.5640539  47.9724041  31.7626616   5.8081863  48.3005017
  31.1350818   5.9310691  47.8472462  37.4772747  15.7980219  32.0709868
  37.8923895  15.4665243  31.3794364  36.6464677  15.5649121  31.9430005
  37.4160756  15.7151475  31.9500716  26.8061096  13.2823960  42.3608046
  26.6236669  13.2570846  41.5080338  27.5410765  13.7522898  42.3996955
  26.8875160  13.3485322  42.2405965  29.8706847  10.0008963  48.8690155
  30.5946820   9.9861994  49.3555050  29.9722984  10.7104318  48.3712123
  29.9925057  10.1033666  48.8668942  44.7051227  12.3577136  37.3410538
  45.0359444  12.8904776  36.7350632  45.2784315  12.4116024  37.9972489
  44.8384906  12.4446705  37.3488319  37.2451797  13.4808048  53.7339102
  36.4524778  13.7951559  53.9191722  37.3600724  13.6959516  52.8959887
  37.1447207  13.5591884  53.6377437  39.9183116  10.2042039  38.0234118
  40.0129970  10.9431333  38.4773743  39.2941959   9.7759514  38.4568682
  39.8392146  10.2503359  38.1542265  38.1735590  13.3828251  48.6724399
  38.7474451  12.7455495  48.8272963  38.0950393  13.3832334  47.8034056
  38.2468825  13.2893363  48.5670810  26.7732006  10.1617461  42.5107113
  27.3505509  10.0253912  43.1499358  26.0746068   9.7053245  42.7652697
  26.7553027  10.0739727  42.6429403  40.1706137  12.0490778  31.2571070
  40.0886300  12.1192966  32.1226057  40.8085858  12.6120522  31.0654810
  40.2525974  12.1429750  31.3561019  33.5299308  11.8151516  40.7245596
  33.2718553  10.9823251  40.6976896  33.5847791  12.0409129  39.8838096
  33.4999086  11.7249288  40.5965733  38.6100358   3.9179967  40.8249689
  37.9056685   3.4289153  40.9833608  38.6585333   3.9302442  39.9538133
  38.5130410   3.8469615  40.7189029  32.5034020   9.3689279  41.2110491
  31.9283612   9.5281447  41.8474452  32.1269697   8.7324688  40.7478941
  32.3636833   9.2987092  41.2365049  36.1707309   7.8412628  46.0702869
  35.7821742   7.4166846  45.4155060  35.5062007   8.0894778  46.5779896
  36.0154237   7.8151349  46.0490737  45.8130578   7.5987633  38.8450699
  45.5567143   6.7867574  38.6548582  46.6559892   7.6065200  38.6180887
  45.8996604   7.4799630  38.7835516  22.2490839   9.0129354  39.2254931
  22.3351091   8.6361222  40.0068461  22.8766637   8.6389799  38.7474890
  22.3547390   8.9014836  39.2700409  39.9933671   1.5387257  43.5826853
  40.3744182   0.8565428  43.9694728  39.1896955   1.2496859  43.4002518
  39.9310132   1.3954305  43.6130909  37.2746247  12.0711233  34.2679676
  38.0886886  12.3626126  34.1562448  37.2105389  11.4171095  33.6937969
  37.3848986  12.0176427  34.1668514  33.1454156  15.5432750  39.3951988
  33.7828103  15.3044498  39.9403782  33.5709227  15.7469909  38.6605149
  33.3030322  15.5383760  39.3669146  27.8366798  17.7821087  43.2786292
  27.8770943  18.0535938  42.4506072  28.3961322  18.3062995  43.6944080
  27.9250144  17.8996842  43.2178180  33.7856971  10.7635040  33.7326878
  34.1702123  10.5442747  34.4843423  33.5368591  11.5897985  33.8627954
  33.8059043  10.8533186  33.8627954  33.9525511   4.0441455  53.4489462
  33.6378952   4.8141018  53.1859025  33.6315444   3.4811711  52.8641689
  33.8584430   4.0751724  53.3230812  35.5275628  16.0205173  41.0745775
  35.6014636  15.8580345  41.9287624  36.3445134  16.2095362  40.8306256
  35.6591986  16.0241915  41.1643800  50.2193950  11.1774678  44.0705891
  50.1518451  11.1970637  43.2008477  50.2049613  12.0205006  44.2961561
  50.2072707  11.3048413  43.9758367  29.2881384  16.3663036  38.1040218
  28.4619502  16.6124773  37.9774497  29.3493375  16.2875116  38.9702276
  29.1755551  16.3907985  38.2129162  31.5057408   2.4331977  39.0635658
  30.6379833   2.5054576  39.1293267  31.7932612   3.2354056  39.2523633
  31.4197156   2.5626124  39.1010425  34.0680213  18.9839916  35.8059248
  34.3578512  18.5928897  35.0818475  34.7983694  19.1656621  36.2464523
  34.2187097  18.9533730  35.7642055  34.6574958  13.7857662  46.8912378
  34.1586652  14.4973429  46.9697267  35.4675183  14.1058328  46.8530541
  34.7031065  13.9384510  46.8968947  32.0086129  20.9607298  38.8719398
  31.7886424  20.6704653  39.6646065  31.7880651  20.3022253  38.3437310
  31.9433723  20.8207007  38.9108306  30.9203076  13.0480615  41.1375099
  30.6316325  12.4218086  41.6720827  31.7886424  12.9900902  41.2039780
  31.0063328  12.9468159  41.2266054  41.7080974   8.1915398  41.4557081
  41.3645740   7.4705733  41.8064331  41.8074016   7.9829249  40.6135439
  41.6723017   8.0539601  41.3828761  31.1235349  14.6875866  37.0617464
  31.8781317  15.0688905  37.2752927  30.5305962  15.1387010  37.5164161
  31.1472063  14.8104693  37.1600343  33.5842016   6.6438706  52.1874677
  32.7741792   6.9496486  52.0764519  34.0616703   7.3644289  52.3027261
  33.5345495   6.7953307  52.1881748  32.4433576  15.8584427  42.4357580
  31.9214330  15.9984719  43.1209444  32.8307596  15.0995091  42.6259697
  32.4237277  15.7669951  42.5658656  29.4324760   5.9090236  36.5052534
  29.1449556   5.5391506  35.7684482  30.1195228   6.3785091  36.2436239
  29.4913657   5.9237205  36.3567610  33.8699902  12.8888446  37.8339071
  33.6742684  13.4963181  37.2399374  34.0934247  12.1956390  37.3530745
  33.8734543  12.8765972  37.6755152  32.2678432   9.7743184  37.9519939
  32.9901084   9.9384342  37.4923745  31.7886424  10.4952849  37.8459279
  32.3042162   9.9041414  37.8685553  40.2271939   6.1106983  43.3316624
  39.3883040   6.1368262  43.0954887  40.2976307   6.7577718  43.9121971
  40.1140333   6.2103109  43.3825741  29.9186048  12.1801257  47.0574079
  30.4307145  12.4585510  46.4082839  29.6322391  12.9190551  47.4236892
  29.9520911  12.3303610  47.0163957  38.6741218   3.0092360  38.0644240
  39.3767570   2.8100108  37.5864198  38.4085406   2.2368302  38.3713083
  38.7387850   2.8655326  38.0389682  27.0052955   6.6871448  37.3537816
  27.1069091   7.4897610  37.6818791  27.8008841   6.4858784  37.0560896
  27.1380860   6.7757347  37.3573171  33.4369774   4.2727645  47.1175121
  33.2452971   4.2882780  47.9674544  34.2868370   4.4691319  47.0941775
  33.5345496   4.3041996  47.2398415  27.8216687   6.8018627  45.0958937
  27.6802179   5.9502567  45.2203445  28.1057250   6.8447287  44.2721143
  27.8424533   6.6818377  44.9926561  37.9755279   8.6385717  39.2403425
  37.7289993   8.5581468  40.0740214  38.3040402   7.8539185  39.0465953
  37.9876523   8.5111982  39.3350948  40.2081413  11.6465452  49.2812588
  40.2029452  10.7745268  49.2855015  40.9142407  11.8453621  48.8082044
  40.3126417  11.5469326  49.2119624  33.9352306  11.3742435  48.6526408
  34.0795682  11.9543644  48.0169518  34.2827955  11.7518732  49.3576263
  34.0079768  11.5163139  48.6625403  36.1072224  10.5732604  46.4351540
  35.3595538  10.7663618  46.0299818  36.2613749   9.7477823  46.1975661
  36.0194651  10.4797715  46.3396946  33.0080061  19.5645207  45.5187435
  33.1569625  19.0048123  44.8660840  33.7880063  19.6437209  45.9019954
  33.1454155  19.4930773  45.4784384  36.3474001   4.4683154  47.3246944
  36.8046615   5.2007129  47.4519736  36.4230330   4.0449620  48.0834200
  36.4264971   4.5140393  47.4548020  28.5906992   4.7148974  48.4136387
  28.0549181   4.1029332  48.7297155  28.6524757   5.2897110  49.0670054
  28.5202625   4.7095902  48.5571814  34.2256379   6.4585258  44.1688768
  33.4352453   6.2776719  44.4906104  34.6217002   5.6812211  44.1519062
  34.1673255   6.3172719  44.2141316  38.7122269  15.2873033  29.6095481
  39.4795255  15.3473158  29.2001333  38.2653578  14.7153474  29.1251800
  38.7595697  15.2109608  29.4773192  36.7394209   8.9345518  48.6512267
  36.6753350   9.7955474  48.5232403  36.8791397   8.6177511  47.8507818
  36.7509679   9.0145684  48.5140480  35.4213303  11.6277657  42.7928470
  34.9975552  11.8282156  42.0567488  35.2458158  10.7806505  42.9052769
  35.3324183  11.5326438  42.7002160  30.7095748  12.1229708  38.2256442
  30.8660367  12.0576511  39.0812434  31.0496341  12.8978261  38.0135122
  30.7828983  12.2278906  38.3211036  37.2474892  11.4987592  37.0949805
  37.7890438  10.9957973  37.5588426  37.5621451  11.4452787  36.2839291
  37.3739290  11.4167013  37.0433617  41.1192000  15.7090239  54.2076718
  41.9326865  15.4375388  54.3681850  40.9586966  15.4097779  53.4036913
  41.2161948  15.6245165  54.1122123  38.3964162   6.3923896  47.1472106
  38.6106131   5.7534811  46.5935460  37.7798061   6.8369720  46.7179968
  38.3369491   6.3634040  47.0022537  27.2830009   9.3064659  38.5417209
  27.6628974   9.7249204  37.8777477  26.7085374   9.8878114  38.8486053
  27.2541334   9.4542518  38.4893950  40.5603250   8.0012962  48.0855413
  39.7479932   7.6938852  48.1668586  41.0193184   7.5211962  48.6498125
  40.5083635   7.8849454  48.1810007  37.7878890  -0.4976168  42.1359449
  36.9172448  -0.5237447  42.0892758  38.0419232  -0.6698976  41.3185294
  37.6972451  -0.5266024  42.0079585  34.7596870  11.5591799  31.0732592
  35.0489395  12.3356681  31.3476166  34.8468669  11.0480530  31.7747091
  34.8151126  11.5983717  31.2175089  37.6556757   9.4073033  52.8684115
  38.1256389  10.0315149  53.2551989  37.7018638   8.7390009  53.4277330
  37.7324633   9.4007713  53.0084187  34.8128031   1.5130060  43.5932919
  34.2966520   0.8210252  43.7184498  34.2521960   2.1800838  43.5395518
  34.6534544   1.5093318  43.6038985  36.8820264   2.0523021  45.4225772
  36.4952018   2.0772052  46.2039301  36.3953202   1.4864699  44.9700288
  36.7532773   1.9718771  45.4713675  42.8570244   8.6185675  44.0465474
  42.4297852   8.5312024  43.2913573  42.2196297   8.7263451  44.6320318
  42.6999851   8.6218335  44.0210915  36.5477406  -1.0609994  47.7136031
  37.1770524  -0.5249694  47.4357102  36.7163269  -1.1532635  48.5649597
  36.6655201  -0.9948632  47.7984560  36.3491321   3.7261201  49.9862443
  37.1764750   3.4546350  50.0421058  36.3699167   4.5222042  50.3426261
  36.4744171   3.8040955  50.0477626  30.9260811  10.8725064  43.1732704
  30.0848817  10.7728938  43.3811598  31.1350819  11.6420544  43.5247024
  30.8325503  10.9717107  43.2560019  28.4036378   8.4944600  41.0017454
  28.0093076   8.5687612  40.2267564  27.8476495   8.8802547  41.5525816
  28.2639190   8.5626375  40.9685114  40.0401325   1.4725894  40.6821333
  40.2450918   1.4048202  41.5278330  39.7127749   2.2784716  40.6142511
  40.0216573   1.5811835  40.7980988  34.7377476   8.8006463  42.4230301
  34.4340613   8.2462451  43.0240709  34.0356897   8.9798673  41.9358335
  34.5893686   8.7451245  42.4400007  33.7943573   6.1106983  36.9875003
  34.0703307   5.3925895  36.5752571  34.3942242   6.7091902  36.7796109
  33.9236837   6.0927353  36.8955764  32.7995827  16.0156183  47.1302399
  32.6916182  16.0258246  47.9964457  33.0091608  16.8410964  46.9407353
  32.8145938  16.1397258  47.2306491  43.2935012   2.0257659  40.1624099
  42.6809326   2.5128061  40.5477831  43.3899187   1.3501150  40.7061750
  43.2172910   1.9975967  40.3002957  37.2954093   3.7820500  35.2621598
  37.7497840   3.9531060  35.9869443  37.7694139   3.1688611  34.8619374
  37.4322413   3.7171385  35.3095360  30.8169619  13.2668826  44.5924337
  30.2257552  13.9078324  44.5627352  31.5790642  13.6906443  44.5655636
  30.8417879  13.4244664  44.5839484  31.2130242   4.4270824  45.2592354
  31.6731723   4.5009753  45.9967478  31.2586348   5.2252078  44.9092176
  31.2880797   4.5564971  45.3165111  32.8613591   5.0937518  49.8264381
  32.4699156   4.4470866  50.2620159  33.0299454   5.6848954  50.4458637
  32.8284502   5.0851786  49.9827087  34.6367113  10.4863034  36.3666605
  35.3809158  10.8737311  36.6049555  34.7827810   9.6420460  36.5307093
  34.7677698  10.4193507  36.4260575  36.5546689   2.2813293  41.3998467
  35.7082734   2.4536101  41.2739817  36.5517821   1.4762637  41.7364295
  36.4293839   2.1874322  41.4309594  37.6244989   6.0588508  42.2660525
  37.1504943   5.5330270  42.7765836  37.9963125   5.5117980  41.6975386
  37.6094878   5.9004504  42.2575672  28.0018019   8.0560014  47.6344070
  28.8643632   7.9555723  47.5481400  27.6709802   7.4754724  47.0729643
  28.0803216   7.9551641  47.5389476  39.5528489   6.9525062  35.3286278
  39.0251507   7.0353806  34.6391987  40.0124197   7.6942934  35.3250923
  39.5430339   7.0745725  35.2260974  45.8886907   7.8992340  41.6296564
  45.6496677   7.8588175  40.7917349  46.0520808   8.7463492  41.7562285
  45.8777210   8.0184425  41.5250046  42.4932937  12.2842290  47.5601609
  43.2167136  11.8314816  47.3812629  42.2282899  12.5646955  46.7773937
  42.5614210  12.2593258  47.4180325  31.3619805   6.8802463  44.2954489
  30.7372875   6.8920855  43.6880441  31.0265400   7.3562638  44.9445729
  31.2205297   6.9520980  44.3011057  31.5461554   5.2227582  30.3527174
  31.1974358   5.8747307  30.8158723  31.0658000   5.2084695  29.6251045
  31.4231798   5.3170635  30.3138265  28.0745481  14.9402923  45.7358253
  27.5445405  14.2495362  45.7853228  28.3470574  14.9313109  44.9070961
  28.0370203  14.8370055  45.6205669  38.2751726  12.3826168  45.7096625
  37.6608720  11.8384218  46.0045260  38.7919011  11.8690404  45.2302441
  38.2607389  12.2262577  45.6820853  37.5148024  13.4530438  43.4440923
  37.0875632  12.8280157  43.0106359  37.5072968  13.1705360  44.2699930
  37.4507165  13.3183219  43.5020751  30.6310551   8.4895611  46.5129357
  30.7904037   7.7338935  46.9181079  30.4503444   9.0386551  47.1670095
  30.6275910   8.4589425  46.6692063  38.5730854   0.6556847  47.0680147
  38.0771415   0.8520521  46.3771713  39.3299916   1.0549515  46.8968948
  38.6117678   0.7434580  46.9400283  35.8433733   4.3299193  43.6583457
  35.8676220   3.7959305  42.9696237  36.0945207   3.8216501  44.3209048
  35.8843652   4.1760096  43.6548102  23.3541323  11.6130688  43.0926601
  23.2484772  11.5677532  42.2278685  22.6041543  11.9584468  43.3740886
  23.2276926  11.6571596  43.0063931  32.1235055   3.0570011  43.0389201
  32.1633427   3.5579217  43.7523909  31.2984720   3.1480404  42.7695125
  32.0074581   3.1451827  43.1039740  34.3064668  12.6230751  51.1409496
  33.4560299  12.7602465  51.2767141  34.4692796  11.8894529  51.5857198
  34.2048532  12.5344852  51.2265095  33.5449419   9.5730521  45.3363100
  32.7141349   9.7404339  45.1298349  33.4900936   9.1966471  46.1211986
  33.4138834   9.5420252  45.4211629  31.3533202   3.0639414  50.9719511
  31.9785906   2.5201546  51.2448943  30.8983682   2.5834331  50.4027302
  31.3781463   2.9128895  50.9281105  31.9185463   7.8486112  35.8653218
  32.0588424   8.3458576  36.5681860  32.4167996   7.1472407  36.0067432
  32.0126544   7.8188091  35.9904797  31.9485685   8.7153223  33.1945795
  32.5830765   9.3113648  33.1295257  32.0311296   8.4156681  34.0091665
  32.0542236   8.7594131  33.3048882  33.5264668   4.6467199  33.1691237
  33.8480509   4.1670281  32.5150499  33.7891612   5.4566845  32.9782049
  33.6130693   4.6957097  33.0446729  36.7561641  15.6686073  46.6890053
  36.2486732  16.2221920  47.1330684  36.4588287  15.7294363  45.8708828
  36.6366526  15.7592384  46.6338510  38.9223823   4.0339393  45.5314716
  39.3478894   3.5811919  44.9198242  38.3080816   3.4799463  45.8079504
  38.8952468   3.8853369  45.4819741  28.4538673  10.9121064  36.4635341
  28.9630902  11.5085571  36.8446647  28.9272945  10.6447038  35.7811761
  28.5982049  10.9606879  36.4189864  37.3618046   0.5054492  38.9405293
  36.7186364   0.3552139  39.5090432  37.0217453   0.2596838  38.1754398
  37.2163123   0.4466615  38.9108308  41.9517392   8.4613919  38.3635302
  41.2808582   9.0043621  38.2348367  42.6457143   8.9308774  38.1216997
  41.9546260   8.6112190  38.3090829  42.1145520   4.9169803  41.2725675
  42.4673130   4.4899526  41.9471474  41.2560321   4.8320646  41.4026751
  42.0394964   4.8414543  41.3920685  30.8129205   7.5477322  39.3308521
  30.0941194   7.9641455  39.5981385  31.1841567   8.1131561  38.7800160
  30.7621136   7.6926604  39.2891328  40.1128786   8.1805171  45.2210517
  40.0926713   7.9988467  46.0745296  40.1607986   9.0517190  45.1970101
  40.1163427   8.2821710  45.3433812  38.0575115  14.7692363  51.1458994
  38.0170970  14.1242040  50.5604150  38.8698434  14.7128981  51.4584406
  38.1718269  14.6651330  51.1055943  36.5875779   6.5875322  34.6681901
  35.9940618   6.9092319  34.1166468  36.6251057   5.7416418  34.4603007
  36.5050168   6.5099651  34.5564672  43.5469580   0.0388215  42.2009987
  43.0400444  -0.6682646  42.1331165  44.3437014  -0.2918597  42.3311064
  43.5896819  -0.1138634  42.2108982  39.4633596   6.5454827  38.0983651
  39.2347289   6.5687528  37.2562009  39.7231672   5.7212294  38.2178662
  39.4679784   6.4270907  37.9908849  28.5918539   6.8426875  50.3511113
  28.4221129   7.5028250  49.8059320  28.1484489   7.0533436  51.0723602
  28.5017872   6.9712857  50.3772743  32.5178358   5.0831373  39.3937847
  32.9935724   5.4448453  38.7588028  32.0166958   5.7387841  39.6737990
  32.5143717   5.2325562  39.3414588  45.7489720  14.5553141  35.1850852
  46.1323326  15.3044497  35.4148949  44.9533833  14.8018961  34.9262841
  45.6883502  14.7022835  35.1808425  37.6221894   6.3213545  50.1411007
  38.1793325   6.0927354  49.5089472  37.2982959   7.0819210  49.8646219
  37.6568305   6.3997381  50.0067504  25.4920603   9.7473741  45.6099603
  24.9447323   9.0774386  45.7280471  26.2812982   9.3803589  45.6743070
  25.5272787   9.5938727  45.6368304  35.3405012   9.4081198  51.1063014
  36.0916339   9.7232875  51.4202568  35.5327588   9.2060369  50.2796936
  35.4796426   9.4248580  51.0306410  34.5605011   7.2272573  32.7611231
  34.9403976   7.2452202  31.9762346  33.8197607   7.6726562  32.6402078
  34.5073849   7.2954348  32.6274799  42.1890302   5.5354764  38.3486809
  42.1884528   5.3803421  39.2071086  41.9846482   6.3817751  38.2928195
  42.1590080   5.6375385  38.4674749  24.2507573   8.9594549  42.7645626
  24.0729334   8.5071158  43.4900542  23.9626595   9.7620710  42.9484104
  24.1820526   9.0117106  42.8989129  39.9131154  10.2152266  42.0023016
  40.4084819   9.4975261  41.9627037  39.1030930   9.9123064  41.8877503
  39.8675047  10.0649912  41.9796742  35.3589765  14.0650079  34.1520021
  34.5501088  13.7416753  34.1053330  35.8664674  13.3583301  34.0848269
  35.3139432  13.9131396  34.1350315  25.9880043  11.4922272  39.8767385
  25.1225562  11.4807963  39.7650156  26.0878859  11.3052495  40.7238524
  25.8754210  11.4628334  39.9856329  40.6538557  18.2891531  53.1993375
  40.7635522  17.5000092  53.5550122  40.9829453  18.1997467  52.3967713
  40.7190963  18.1597384  53.1335765  35.4831067   1.4517688  47.9759397
  35.6158973   0.6548682  48.3040373  35.8676220   1.9784091  48.5557673
  35.5587396   1.4117605  48.1102900  38.5563422  -1.6251986  44.5740491
  37.7509386  -1.7354256  44.8908329  38.4270158  -1.5239530  43.7170356
  38.4183555  -1.6268315  44.4948531  42.0129383   4.5393506  45.1680187
  41.4292372   5.0402713  44.7557755  42.3333677   4.0323063  44.5344511
  41.9742558   4.5385341  45.0138695  34.5524182   3.4534101  35.4438862
  35.3739876   3.6232414  35.2020557  34.0893833   3.6081362  34.7205160
  34.6055344   3.5015834  35.3010507  33.1419514   1.4476863  46.2237291
  33.6863927   1.1067990  46.8141633  33.1956450   2.3062325  46.3658576
  33.2308633   1.5232123  46.3319164  28.9550073  15.2093279  43.0976099
  29.5594930  15.1689114  42.4689920  28.7477385  16.0564431  43.1280155
  29.0138970  15.3281282  43.0092216  24.1901355  14.1927897  42.9675022
  24.0925633  13.3824168  43.2765079  24.9730225  14.1719690  42.5821290
  24.2917491  14.0694987  42.9561885  52.3759375  15.0564316  39.2474137
  52.0612816  15.7467794  39.6794559  51.8586316  15.0009098  38.5459638
  52.2523845  15.1499204  39.2071086  47.4095705  16.5387811  36.2174611
  48.1381865  16.3603766  35.7712767  47.4990598  17.3805891  36.4281789
  47.5302367  16.6371689  36.1828129  44.9258095  19.5626763  53.4489462
  44.6111536  20.3326326  53.1859025  44.6048027  18.9997019  52.8641689
  44.8317014  19.5937032  53.3230812  61.1926534  26.6959986  44.0705891
  61.1251034  26.7155945  43.2008477  61.1782196  27.5390313  44.2961561
  61.1805290  26.8233721  43.9758367  51.6022880  18.0995144  47.3946980
  52.3476472  17.9104954  46.9810405  51.1860185  18.6253382  46.8360836
  51.6507855  18.1497289  47.2511553  51.7933910  13.1658338  41.1940787
  51.9117478  13.6234801  40.4608089  51.6196086  12.3603599  40.9077004
  51.7853081  13.1152110  41.0441720  52.0924583  31.2275547  54.2076718
  52.9059449  30.9560696  54.3681850  51.9319550  30.9283087  53.4036913
  52.1894532  31.1430473  54.1122123  47.5209990  14.4575314  47.7136031
  48.1503108  14.9935614  47.4357102  47.6895852  14.3652673  48.5649597
  47.6387784  14.5236676  47.7984560  51.0133908  16.9911202  40.6821333
  51.2183502  16.9233510  41.5278330  50.6860332  17.7970024  40.6142511
  50.9949156  17.0997143  40.7980988  57.9092624  28.6159903  45.5901615
  57.9675748  29.0646552  46.3361591  57.2759091  29.0258716  45.1531695
  57.8243919  28.7433638  45.6354163  49.5463437  16.1742155  47.0680147
  49.0503999  16.3705829  46.3771713  50.3032499  16.5734823  46.8968948
  49.5850262  16.2619888  46.9400283  55.9000834  26.7654008  46.0632159
  56.4918675  27.4051259  46.0950357  56.3359829  26.0677045  46.3524226
  56.0519266  26.7572359  46.1112992  48.3350629  16.0239800  38.9405293
  47.6918947  15.8737447  39.5090432  47.9950036  15.7782146  38.1754398
  48.1895707  15.9651923  38.9108308  54.5202163  15.5573523  42.2009987
  54.0133028  14.8502662  42.1331165  55.3169597  15.2266711  42.3311064
  54.5629403  15.4046674  42.2108982  39.5651122  22.3612183  50.3511113
  39.3953713  23.0213558  49.8059320  39.1217072  22.5718744  51.0723602
  39.4750456  22.4898165  50.3772743  51.6271140  33.8076839  53.1993375
  51.7368106  33.0185400  53.5550122  51.9562037  33.7182775  52.3967713
  51.6923546  33.6782692  53.1335765  49.5296006  13.8933322  44.5740491
  48.7241970  13.7831052  44.8908329  49.4002741  13.9945778  43.7170356
  49.3916139  13.8916992  44.4948531  62.7233480  46.0071561  51.6394599
  63.4300247  45.5123592  51.7681534  62.9121416  46.4480642  50.9097257
  62.8561386  45.9989911  51.5503645  68.1452445  46.1500429  40.7344592
  67.3150148  46.3611073  40.8978009  68.0961697  45.3237484  40.4586876
  68.0159180  46.0590035  40.7181957  50.1348028  50.1872103  40.9642687
  49.6515607  50.9122592  40.9402271  50.9471347  50.4848233  41.0752845
  50.1838776  50.3374456  40.9769966  67.6406403  38.7970830  44.5295013
  66.8034824  38.8673017  44.7642608  67.6094634  38.7995325  43.6569316
  67.5124686  38.8081057  44.4354561  59.9745834  48.8608116  52.1952458
  60.7586250  48.9738964  52.5608200  59.7742428  48.0349254  52.3911144
  60.0611859  48.7554836  52.2786844  59.1916964  44.5178663  53.7339102
  58.3989945  44.8322175  53.9191722  59.3065891  44.7330132  52.8959887
  59.0912375  44.5962500  53.6377437  61.9398838  32.5757873  43.5826853
  62.3209350  31.8936044  43.9694728  61.1362122  32.2867475  43.4002518
  61.8775299  32.4324921  43.6130909  65.4420905  45.7907845  48.6809252
  65.2059542  44.9595910  48.5621312  66.0864134  45.7393452  49.2664096
  65.5015575  45.6605533  48.7495145  55.8990678  35.0812071  53.4489462
  55.5844119  35.8511634  53.1859025  55.5780611  34.5182327  52.8641689
  55.8049597  35.1122340  53.3230812  66.4657325  45.5752293  44.7437546
  66.1603142  46.3080350  45.1050862  65.7463541  45.1690223  44.4630332
  66.3144668  45.6234026  44.7550683  72.1659117  42.2145294  44.0705891
  72.0983618  42.2341253  43.2008477  72.1514780  43.0575621  44.2961561
  72.1537874  42.3419029  43.9758367  62.5755464  33.6180452  47.3946980
  63.3209056  33.4290262  46.9810405  62.1592769  34.1438690  46.8360836
  62.6240438  33.6682597  47.2511553  55.3834941  35.3098261  47.1175121
  55.1918138  35.3253395  47.9674544  56.2333537  35.5061935  47.0941775
  55.4810663  35.3412612  47.2398415  58.2939168  35.5053770  47.3246944
  58.7511782  36.2377745  47.4519736  58.3695497  35.0820236  48.0834200
  58.3730138  35.5511008  47.4548020  63.5581967  47.9863437  34.1258392
  63.6401804  48.7930423  33.8019843  64.0431709  48.0059396  34.8499165
  63.6419125  48.1084099  34.1845290  63.0657167  46.7460855  54.2076718
  63.8792032  46.4746004  54.3681850  62.9052133  46.4468395  53.4036913
  63.1627115  46.6615781  54.1122123  63.0778411  47.8067145  49.4799558
  63.7158132  47.3127341  49.1462014  62.4352503  47.7344546  48.8951785
  63.0772638  47.7226154  49.3441913  58.4942573  29.9760622  47.7136031
  59.1235691  30.5120922  47.4357102  58.6628436  29.8837981  48.5649597
  58.6120368  30.0421984  47.7984560  58.2956488  34.7631817  49.9862443
  59.1229918  34.4916965  50.0421058  58.3164334  35.5592658  50.3426261
  58.4209338  34.8411571  50.0477626  54.8078758  36.1308134  49.8264381
  54.4164324  35.4841481  50.2620159  54.9764621  36.7219570  50.4458637
  54.7749669  36.1222402  49.9827087  68.8825207  44.1345211  45.5901615
  68.9408331  44.5831860  46.3361591  68.2491675  44.5444024  45.1531695
  68.7976503  44.2618946  45.6354163  60.5196021  31.6927462  47.0680147
  60.0236582  31.8891137  46.3771713  61.2765083  32.0920131  46.8968948
  60.5582846  31.7805196  46.9400283  53.2998369  34.1010029  50.9719511
  53.9251073  33.5572162  51.2448943  52.8448849  33.6204947  50.4027302
  53.3246630  33.9499511  50.9281105  66.8733418  42.2839316  46.0632159
  67.4651258  42.9236567  46.0950357  67.3092413  41.5862353  46.3524226
  67.0251849  42.2757667  46.1112992  60.8688990  35.0710008  45.5314716
  61.2944062  34.6182535  44.9198242  60.2545983  34.5170079  45.8079504
  60.8417635  34.9223985  45.4819741  62.6003724  49.3262147  53.1993375
  62.7100689  48.5370708  53.5550122  62.9294621  49.2368083  52.3967713
  62.6656130  49.1968000  53.1335765  57.4296234  32.4888304  47.9759397
  57.5624140  31.6919298  48.3040373  57.8141387  33.0154707  48.5557673
  57.5052563  32.4488221  48.1102900  60.5028589  29.4118630  44.5740491
  59.6974553  29.3016360  44.8908329  60.3735325  29.5131086  43.7170356
  60.3648722  29.4102300  44.4948531  63.9594550  35.5764122  45.1680187
  63.3757539  36.0773329  44.7557755  64.2798844  35.0693678  44.5344511
  63.9207725  35.5755957  45.0138695  77.1872662  56.1694692  37.2781213
  77.1566667  57.0239329  37.4499482  77.7854011  55.8689985  37.8367356
  77.2709820  56.2511189  37.3856015  70.3872347  55.2570343  42.0334143
  69.5310243  55.4178841  42.0843260  70.4340001  54.3862407  42.0539204
  70.2671459  55.1521145  42.0440209  64.7713487  64.7933061  37.7971375
  64.0196386  64.4148599  37.5687420  65.2199499  64.8251495  37.0490185
  64.7263154  64.7418668  37.6528877  73.6966064  61.5256869  51.6394599
  74.4032831  61.0308900  51.7681534  73.8853999  61.9665950  50.9097257
  73.8293969  61.5175219  51.5503645  70.2238447  65.2158431  33.2256922
  69.8889815  65.8935352  32.7901144  70.7365317  64.8263742  32.6373793
  70.2504028  65.2583009  33.0743713  69.7642738  67.1672699  39.1668033
  70.1482117  67.7359598  38.6272809  69.7001879  66.4422210  38.6873849
  69.8116165  67.1448163  39.0161896  73.2324168  57.3162387  44.6765795
  73.7780128  57.9947474  44.7359764  73.1741045  57.1749848  43.8167376
  73.3040083  57.3954389  44.5577855  66.3498243  64.8051453  40.0634147
  66.4508606  63.9951807  40.3731275  65.7539988  64.7108400  39.4333826
  66.2770782  64.6716481  40.0160386  75.0089237  58.7446994  35.5499523
  74.8928763  59.4954680  35.9791661  75.8045124  58.4870947  35.7995610
  75.1093826  58.8181841  35.6503614  66.1898983  69.7229042  41.4649003
  66.8336438  70.1642206  41.8545162  66.5155238  68.9182469  41.3779262
  66.3330811  69.6694237  41.5094481  59.5463287  60.8271740  39.6886481
  59.3113472  59.9939392  39.5818750  59.6848928  61.1076405  38.8747682
  59.5318950  60.7455243  39.5528836  66.8919562  62.7341017  36.8368865
  67.2135403  63.2746225  36.2330173  67.5391659  62.1637789  36.9691155
  67.0345618  62.7300192  36.7675900  68.9421270  54.7357012  36.9203252
  69.6401435  54.9145140  37.4124715  69.2573603  54.2127351  36.2973641
  69.0916608  54.6850784  36.9005262  69.1309206  61.1227457  36.9083043
  69.5702841  60.5144558  37.3537816  68.9813869  60.7434831  36.1368508
  69.1730672  60.9765928  36.8602211  66.5980849  59.7171469  44.1101869
  67.2429851  59.2243912  43.7912817  66.8382626  59.8596256  44.9367947
  66.7291434  59.6648911  44.1851402  69.1366940  62.5626375  43.7608761
  69.4190183  61.7677781  43.5395517  69.8653101  63.0406962  43.7813822
  69.2856504  62.5160972  43.7311776  67.1148134  50.1049409  41.0024526
  66.7851464  50.5560552  40.3328225  66.4393136  50.0265572  41.5497533
  66.9658570  50.1600544  40.9847750  72.7318542  59.4754638  33.8613812
  72.6469838  60.3315605  34.0063381  73.2202926  59.1998963  34.5295972
  72.7907440  59.5611960  33.9815894  74.3224542  46.0934932  39.2474137
  74.0077983  46.7838410  39.6794559  73.8051483  46.0379714  38.5459638
  74.1989012  46.1869820  39.2071086  73.6636976  56.0939433  35.3611548
  73.1348447  56.3099066  36.0208854  74.1861996  56.7875571  35.2812517
  73.6625429  56.2282570  35.4467147  79.1185029  61.6685737  40.7344592
  78.2882732  61.8796381  40.8978009  79.0694281  60.8422792  40.4586876
  78.9891764  61.5775343  40.7181957  65.5536583  59.9902649  34.1619016
  64.9693799  60.4952681  34.5684879  65.1506679  59.7645036  33.4215607
  65.4075887  60.0310898  34.1124041  61.1080612  65.7057411  40.9642687
  60.6248190  66.4307900  40.9402271  61.9203930  66.0033541  41.0752845
  61.1571360  65.8559764  40.9769966  67.1794766  64.4989591  43.5692502
  66.6621708  64.1397006  42.9653810  67.8769157  63.9751766  43.5798568
  67.2060347  64.3687279  43.4822760  70.8358358  64.9484405  49.5308675
  70.9241704  64.7610546  50.3786885  71.2648071  64.3021835  49.1313521
  70.9120460  64.8247413  49.5980426  68.4028818  64.2315565  48.5126337
  67.8399653  63.8188175  49.0365998  69.1649841  64.1568471  48.9319480
  68.4323266  64.1592966  48.6519337  70.0113798  56.2368301  32.6387936
  70.2509802  56.4446285  31.8263279  70.3329639  55.4325810  32.7476881
  70.0950956  56.1482403  32.5348489  65.3204088  48.1661697  36.4847474
  66.0750056  48.5340014  36.2464524  65.1431623  48.5401252  37.2526654
  65.4058567  48.2759885  36.5632363  63.9624809  66.2213586  41.1162967
  64.6645389  65.7065576  41.1735723  63.8822292  66.5487738  41.9209842
  64.0548570  66.1927813  41.2435759  78.6138987  54.3156138  44.5295013
  77.7767408  54.3858325  44.7642608  78.5827218  54.3180633  43.6569316
  78.4857269  54.3266365  44.4354561  65.0103716  56.4589173  50.2443382
  65.1824220  56.3495068  51.0928663  65.5473073  57.1043579  50.0074574
  65.1148720  56.5381175  50.3348479  63.6761153  50.5732016  33.1825587
  63.4936726  50.7903897  32.3566580  64.5386766  50.6871029  33.2384201
  63.7765742  50.6221914  33.0680074  63.2875585  62.4119938  40.6248575
  64.1264484  62.6442871  40.6722337  63.3187354  61.5424250  40.5555610
  63.4157302  62.3176885  40.6213220  63.9128288  62.8320814  44.9261880
  64.4526513  62.6891945  45.5965253  63.2298234  63.2317564  45.2945907
  63.8920442  62.8700485  45.0796302  69.3560872  47.5758427  36.2174611
  70.0847032  47.3974382  35.7712767  69.4455765  48.4176507  36.4281789
  69.4767534  47.6742305  36.1828129  73.3369173  58.5111814  40.1206905
  74.0926688  58.9443329  40.1595814  73.4431497  57.8616584  40.6941541
  73.4639343  58.4789298  40.2104930  76.3749344  62.3385092  40.8709308
  75.9384576  62.3421834  41.6268279  76.0412259  63.0190591  40.4388885
  76.2611964  62.4397547  40.9190140  70.9478417  64.3793424  52.1952458
  71.7318834  64.4924272  52.5608200  70.7475012  63.5534561  52.3911144
  71.0344443  64.2740144  52.2786844  76.2946827  49.3798919  43.1138736
  76.9372735  49.4497024  43.7000651  76.5469847  48.7128142  42.6118278
  76.4268959  49.2925268  43.1266015  63.2223180  53.8506189  31.6948060
  62.5081357  53.5644368  32.1070493  63.7067149  54.1902815  32.3354448
  63.1882543  53.8587839  31.8503695  64.0664039  52.5899483  47.7263310
  63.3735836  52.1196462  47.9724041  64.6824367  52.3637787  48.3005017
  64.0548569  52.4866615  47.8472462  71.1048811  66.2903526  45.8418914
  70.3064056  66.0503026  46.0992782  71.5534822  66.3417919  46.5885961
  71.0523422  66.2625918  45.9903838  79.5093690  59.0566011  39.7628945
  80.1710124  58.4956680  39.6624854  78.8685102  58.5618042  40.0881636
  79.5122557  58.9002420  39.7961285  70.3970498  62.3536143  32.0709868
  70.8121646  62.0221167  31.3794364  69.5662427  62.1205045  31.9430005
  70.3358506  62.2707399  31.9500716  75.7958521  60.0731394  39.5040934
  76.0314110  60.2176593  38.6767784  75.9448084  60.8373802  39.8972447
  75.8524324  60.2070448  39.4404538  62.7904598  56.5564887  48.8690155
  63.5144570  56.5417917  49.3555050  62.8920735  57.2660242  48.3712123
  62.9122807  56.6589590  48.8668942  77.6248977  58.9133060  37.3410538
  77.9557195  59.4460700  36.7350632  78.1982066  58.9671948  37.9972489
  77.7582657  59.0002629  37.3488319  70.1649548  60.0363971  53.7339102
  69.3722528  60.3507483  53.9191722  70.2798475  60.2515440  52.8959887
  70.0644958  60.1147808  53.6377437  72.8380867  56.7597962  38.0234118
  72.9327721  57.4987257  38.4773743  72.2139710  56.3315438  38.4568682
  72.7589897  56.8059283  38.1542265  71.0933340  59.9384175  48.6724399
  71.6672202  59.3011419  48.8272963  71.0148144  59.9388257  47.8034056
  71.1666575  59.8449286  48.5670810  73.0903888  58.6046702  31.2571070
  73.0084050  58.6748889  32.1226057  73.7283608  59.1676446  31.0654810
  73.1723725  58.6985673  31.3561019  66.4497059  58.3707440  40.7245596
  66.1916303  57.5379175  40.6976896  66.5045542  58.5965053  39.8838096
  66.4196837  58.2805211  40.5965733  71.5298109  50.4735891  40.8249689
  70.8254436  49.9845076  40.9833608  71.5783083  50.4858365  39.9538133
  71.4328161  50.4025539  40.7189029  65.4231771  55.9245203  41.2110491
  64.8481362  56.0837371  41.8474452  65.0467447  55.2880612  40.7478941
  65.2834584  55.8543016  41.2365049  69.0905060  54.3968552  46.0702869
  68.7019493  53.9722770  45.4155060  68.4259758  54.6450702  46.5779896
  68.9351988  54.3707273  46.0490737  78.7328329  54.1543557  38.8450699
  78.4764894  53.3423498  38.6548582  79.5757643  54.1621124  38.6180887
  78.8194354  54.0355554  38.7835516  72.9131421  48.0943181  43.5826853
  73.2941933  47.4121352  43.9694728  72.1094706  47.8052783  43.4002518
  72.8507883  47.9510229  43.6130909  70.1943998  58.6267157  34.2679676
  71.0084637  58.9182049  34.1562448  70.1303139  57.9727019  33.6937969
  70.3046737  58.5732351  34.1668514  76.4153488  61.3093153  48.6809252
  76.1792126  60.4781217  48.5621312  77.0596717  61.2578760  49.2664096
  76.4748159  61.1790841  48.7495145  66.0651906  62.0988674  39.3951988
  66.7025853  61.8600422  39.9403782  66.4906978  62.3025833  38.6605149
  66.2228073  62.0939684  39.3669146  60.7564549  64.3377010  43.2786292
  60.7968694  64.6091862  42.4506072  61.3159073  64.8618919  43.6944080
  60.8447895  64.4552766  43.2178180  66.7054721  57.3190964  33.7326878
  67.0899874  57.0998670  34.4843423  66.4566342  58.1453909  33.8627954
  66.7256794  57.4089110  33.8627954  66.8723262  50.5997379  53.4489462
  66.5576703  51.3696942  53.1859025  66.5513194  50.0367635  52.8641689
  66.7782181  50.6307648  53.3230812  77.4389909  61.0937601  44.7437546
  77.1335726  61.8265658  45.1050862  76.7196125  60.6875531  44.4630332
  77.2877251  61.1419334  44.7550683  68.4473378  62.5761097  41.0745775
  68.5212387  62.4136268  41.9287624  69.2642885  62.7651286  40.8306256
  68.5789737  62.5797839  41.1643800  62.2079135  62.9218959  38.1040218
  61.3817253  63.1680697  37.9774497  62.2691126  62.8431040  38.9702276
  62.0953302  62.9463908  38.2129162  64.4255159  48.9887900  39.0635658
  63.5577584  49.0610500  39.1293267  64.7130363  49.7909979  39.2523633
  64.3394907  49.1182048  39.1010425  73.5488047  49.1365760  47.3946980
  74.2941639  48.9475570  46.9810405  73.1325352  49.6623998  46.8360836
  73.5973022  49.1867905  47.2511553  66.9877964  65.5395840  35.8059248
  67.2776262  65.1484821  35.0818475  67.7181445  65.7212545  36.2464523
  67.1384848  65.5089653  35.7642055  80.9250318  56.5074988  42.3452485
  81.4758240  55.8743057  42.5849577  80.9094434  57.0390381  43.0367989
  81.0035515  56.4923936  42.4831343  67.5772709  60.3413586  46.8912378
  67.0784403  61.0529353  46.9697267  68.3872933  60.6614252  46.8530541
  67.6228816  60.4940434  46.8968947  64.9283880  67.5163222  38.8719398
  64.7084175  67.2260577  39.6646065  64.7078402  66.8578177  38.3437310
  64.8631474  67.3762930  38.9108306  63.8400827  59.6036539  41.1375099
  63.5514075  58.9774010  41.6720827  64.7084175  59.5456826  41.2039780
  63.9261079  59.5024083  41.2266054  74.6278725  54.7471322  41.4557081
  74.2843490  54.0261657  41.8064331  74.7271767  54.5385173  40.6135439
  74.5920767  54.6095525  41.3828761  67.0951835  68.8892612  37.6550090
  67.7475893  68.3569054  37.8841116  66.3977444  68.5361264  38.0417964
  67.0882553  68.7582135  37.7462258  64.0433100  61.2431790  37.0617464
  64.7979068  61.6244829  37.2752927  63.4503713  61.6942933  37.5164161
  64.0669814  61.3660617  37.1600343  75.0891754  61.2097026  36.9981069
  75.6549786  61.8690236  36.9139612  74.4419657  61.5546724  37.4697471
  75.0770510  61.3578967  37.0553826  66.5039767  53.1994630  52.1874677
  65.6939543  53.5052410  52.0764519  66.9814454  53.9200212  52.3027261
  66.4543246  53.3509231  52.1881748  65.3631327  62.4140351  42.4357580
  64.8412080  62.5540643  43.1209444  65.7505347  61.6551015  42.6259697
  65.3435028  62.3225875  42.5658656  71.5598332  64.1535810  36.4218149
  71.3185008  63.4203671  36.0145213  71.7399665  64.7022667  35.7684482
  71.5505956  64.1258201  36.2648371  66.7897652  59.4444370  37.8339071
  66.5940435  60.0519105  37.2399374  67.0131998  58.7512314  37.3530745
  66.7932293  59.4321896  37.6755152  65.1876182  56.3299108  37.9519939
  65.9098834  56.4940266  37.4923745  64.7084175  57.0508773  37.8459279
  65.2239913  56.4597338  37.8685553  73.1469690  52.6662907  43.3316624
  72.3080791  52.6924186  43.0954887  73.2174057  53.3133642  43.9121971
  73.0338083  52.7659033  43.3825741  62.8383799  58.7357180  47.0574079
  63.3504896  59.0141434  46.4082839  62.5520142  59.4746474  47.4236892
  62.8718662  58.8859534  47.0163957  71.5938968  49.5648284  38.0644240
  72.2965321  49.3656032  37.5864198  71.3283157  48.7924226  38.3713083
  71.6585601  49.4211250  38.0389682  77.0227214  57.8730894  40.6177866
  76.9361188  58.0286320  41.4712645  76.5677694  58.5168969  40.2437271
  76.9430470  57.9906649  40.6884973  66.3567524  50.8283569  47.1175121
  66.1650721  50.8438703  47.9674544  67.2066120  51.0247243  47.0941775
  66.4543246  50.8597920  47.2398415  70.8953030  55.1941641  39.2403425
  70.6487744  55.1137392  40.0740214  71.2238153  54.4095108  39.0465953
  70.9074273  55.0667906  39.3350948  74.7901079  61.9025000  43.0290207
  74.6515438  62.6006046  43.5338949  74.0101077  61.7473656  42.6726388
  74.6544306  61.9825167  43.0516481  73.1279164  58.2021375  49.2812588
  73.1227202  57.3301192  49.2855015  73.8340158  58.4009544  48.8082044
  73.2324168  58.1025249  49.2119624  66.8550057  57.9298359  48.6526408
  66.9993433  58.5099567  48.0169518  67.2025706  58.3074656  49.3576263
  66.9277518  58.0719063  48.6625403  69.0269974  57.1288528  46.4351540
  68.2793289  57.3219542  46.0299818  69.1811500  56.3033747  46.1975661
  68.9392402  57.0353639  46.3396946  65.9277812  66.1201131  45.5187435
  66.0767376  65.5604047  44.8660840  66.7077814  66.1993133  45.9019954
  66.0651906  66.0486696  45.4784384  76.2854452  61.2603254  33.7906706
  75.9061260  60.4740392  33.7835995  75.6220697  61.8090111  33.6478350
  76.1312926  61.2248078  33.7687503  68.4531113  66.2915774  46.7971926
  68.3774784  65.6224584  47.3522714  68.3820972  66.9933562  47.3112592
  68.4311720  66.2960681  46.9548774  69.2671752  51.0239078  47.3246944
  69.7244366  51.7563053  47.4519736  69.3428080  50.6005544  48.0834200
  69.3462721  51.0696316  47.4548020  73.7399077  44.2028953  41.1940787
  73.8582646  44.6605417  40.4608089  73.5661253  43.3974215  40.9077004
  73.7318248  44.1522726  41.0441720  69.1101360  64.8116773  37.6295532
  69.8751251  64.5426416  37.3078196  69.0079450  64.3266783  38.3465595
  69.2082855  64.7006337  37.6875360  67.1454129  53.0141182  44.1688768
  66.3550204  52.8332642  44.4906104  67.5414752  52.2368135  44.1519062
  67.0871006  52.8728643  44.2141316  71.6320020  61.8428957  29.6095481
  72.3993005  61.9029081  29.2001333  71.1851329  61.2709398  29.1251800
  71.6793447  61.7665532  29.4773192  72.5297816  60.6483612  41.8948214
  71.8542818  60.4168845  42.3961601  72.5390192  60.0404795  41.2690319
  72.4316320  60.5242538  41.8764366  69.6591960  55.4901441  48.6512267
  69.5951101  56.3511398  48.5232403  69.7989147  55.1733435  47.8507818
  69.6707430  55.5701608  48.5140480  74.5314550  63.5048745  34.1258392
  74.6134388  64.3115731  33.8019843  75.0164292  63.5244704  34.8499165
  74.6151708  63.6269407  34.1845290  68.3411054  58.1833581  42.7928470
  67.9173303  58.3838080  42.0567488  68.1655909  57.3362429  42.9052769
  68.2521934  58.0882362  42.7002160  67.8422747  69.6984094  45.2549927
  68.3318677  68.9994883  45.0725592  67.2706979  69.4007964  45.8425984
  67.8307277  69.5510317  45.3150968  63.6293499  58.6785632  38.2256442
  63.7858118  58.6132435  39.0812434  63.9694092  59.4534185  38.0135122
  63.7026733  58.7834830  38.3211036  70.1672643  58.0543516  37.0949805
  70.7088189  57.5513897  37.5588426  70.4819202  58.0008710  36.2839291
  70.2937040  57.9722937  37.0433617  74.0389751  62.2646163  54.2076718
  74.8524616  61.9931312  54.3681850  73.8784717  61.9653703  53.4036913
  74.1359699  62.1801089  54.1122123  68.3359093  63.4460867  34.3789833
  68.4051913  62.5875406  34.5182834  69.1147548  63.6632748  34.0508858
  68.4611943  63.3513731  34.3506991  71.3161913  52.9479820  47.1472106
  71.5303882  52.3090734  46.5935460  70.6995812  53.3925644  46.7179968
  71.2567242  52.9189964  47.0022537  72.7266580  65.8698569  38.5926327
  72.3346372  65.5665284  37.8749193  72.8819653  66.7067658  38.4031280
  72.6920170  65.9482405  38.4582824  73.4801001  54.5568885  48.0855413
  72.6677682  54.2494776  48.1668586  73.9390935  54.0767886  48.6498125
  73.4281385  54.4405378  48.1810007  72.8906255  62.4348557  38.5332357
  72.5320910  62.6063200  39.3096390  72.4044966  62.8961763  37.9760356
  72.7664952  62.5287528  38.5657626  70.7076641  46.0579756  42.1359449
  69.8370199  46.0318477  42.0892758  70.9616982  45.8856948  41.3185294
  70.6170201  46.0289900  42.0079585  67.6794621  58.1147723  31.0732592
  67.9687145  58.8912605  31.3476166  67.7666419  57.6036454  31.7747091
  67.7348877  58.1539641  31.2175089  70.5754508  55.9628957  52.8684115
  71.0454139  56.5871073  53.2551989  70.6216388  55.2945932  53.4277330
  70.6522384  55.9563637  53.0084187  67.7325782  48.0685984  43.5932919
  67.2164270  47.3766176  43.7184498  67.1719711  48.7356761  43.5395518
  67.5732295  48.0649242  43.6038985  69.8018015  48.6078944  45.4225772
  69.4149768  48.6327976  46.2039301  69.3150952  48.0420623  44.9700288
  69.6730524  48.5274695  45.4713675  74.0510995  63.3252453  49.4799558
  74.6890715  62.8312649  49.1462014  73.4085086  63.2529854  48.8951785
  74.0505221  63.2411462  49.3441913  75.7767995  55.1741599  44.0465474
  75.3495603  55.0867948  43.2913573  75.1394048  55.2819375  44.6320318
  75.6197602  55.1774259  44.0210915  69.4675157  45.4945930  47.7136031
  70.0968275  46.0306230  47.4357102  69.6361020  45.4023289  48.5649597
  69.5852951  45.5607292  47.7984560  69.2689072  50.2817125  49.9862443
  70.0962501  50.0102273  50.0421058  69.2896918  51.0777966  50.3426261
  69.3941922  50.3596879  50.0477626  74.1065251  64.0172262  46.1204915
  74.8957629  63.6661326  46.2406997  74.2808849  64.8308650  45.8581549
  74.2485533  64.0858119  46.0992783  63.8458562  57.4280987  43.1732704
  63.0046568  57.3284861  43.3811598  64.0548570  58.1976468  43.5247024
  63.7523254  57.5273031  43.2560019  72.9599075  48.0281818  40.6821333
  73.1648669  47.9604126  41.5278330  72.6325499  48.8340640  40.6142511
  72.9414323  48.1367759  40.7980988  67.6575226  55.3562387  42.4230301
  67.3538364  54.8018375  43.0240709  66.9554647  55.5354596  41.9358335
  67.5091436  55.3007169  42.4400007  66.7141324  52.6662906  36.9875003
  66.9901058  51.9481819  36.5752571  67.3139993  53.2647826  36.7796109
  66.8434588  52.6483277  36.8955764  65.7193577  62.5712107  47.1302399
  65.6113932  62.5814169  47.9964457  65.9289359  63.3966888  46.9407353
  65.7343689  62.6953182  47.2306491  76.2132763  48.5813583  40.1624099
  75.6007077  49.0683985  40.5477831  76.3096938  47.9057073  40.7061750
  76.1370661  48.5531891  40.3002957  70.2151844  50.3376424  35.2621598
  70.6695591  50.5086984  35.9869443  70.6891890  49.7244534  34.8619374
  70.3520164  50.2727309  35.3095360  63.7367369  59.8224750  44.5924337
  63.1455303  60.4634248  44.5627352  64.4988393  60.2462367  44.5655636
  63.7615630  59.9800588  44.5839484  65.7811342  51.6493442  49.8264381
  65.3896907  51.0026789  50.2620159  65.9497205  52.2404878  50.4458637
  65.7482252  51.6407710  49.9827087  79.8557791  59.6530519  45.5901615
  79.9140915  60.1017168  46.3361591  79.2224259  60.0629332  45.1531695
  79.7709086  59.7804254  45.6354163  73.4956886  65.2734061  42.0256361
  73.2976574  65.7624876  41.3312572  72.8744597  65.4775303  42.6040494
  73.3744450  65.3750599  42.0079584  67.5564864  57.0418958  36.3666605
  68.3006909  57.4293234  36.6049555  67.7025560  56.1976383  36.5307093
  67.6875449  56.9749431  36.4260575  69.4744440  48.8369217  41.3998467
  68.6280485  49.0092025  41.2739817  69.4715572  48.0318561  41.7364295
  69.3491589  48.7430246  41.4309594  70.5442740  52.6144431  42.2660525
  70.0702694  52.0886193  42.7765836  70.9160876  52.0673904  41.6975386
  70.5292629  52.4560428  42.2575672  60.9215770  54.6115938  47.6344070
  61.7841383  54.5111647  47.5481400  60.5907553  54.0310647  47.0729643
  61.0000966  54.5107565  47.5389476  76.8079471  57.6746807  43.6767305
  76.5677693  56.8353222  43.6809732  77.2871478  57.7546974  44.4008079
  76.8431654  57.5628207  43.7842108  72.4726240  53.5080986  35.3286278
  71.9449258  53.5909730  34.6391987  72.9321948  54.2498857  35.3250923
  72.4628090  53.6301648  35.2260974  78.8084658  54.4548264  41.6296564
  78.5694427  54.4144098  40.7917349  78.9718559  55.3019416  41.7562285
  78.7974961  54.5740349  41.5250046  75.4130688  58.8398213  47.5601609
  76.1364887  58.3870740  47.3812629  75.1480650  59.1202879  46.7773937
  75.4811961  58.8149182  47.4180325  64.2817556  53.4358387  44.2954489
  63.6570626  53.4476779  43.6880441  63.9463151  53.9118562  44.9445729
  64.1403048  53.5076904  44.3011057  64.4659305  51.7783506  30.3527174
  64.1172109  52.4303231  30.8158723  63.9855751  51.7640619  29.6251045
  64.3429549  51.8726559  30.3138265  60.9943232  61.4958847  45.7358253
  60.4643156  60.8051286  45.7853228  61.2668325  61.4869032  44.9070961
  60.9567954  61.3925979  45.6205669  72.0263322  62.0784549  34.4595936
  72.7497521  62.5442662  34.3160509  71.5863913  62.1458159  33.7093533
  72.0679014  62.1568386  34.3280717  71.1949477  58.9382092  45.7096625
  70.5806470  58.3940142  46.0045260  71.7116762  58.4246328  45.2302441
  71.1805140  58.7818501  45.6820853  70.4345774  60.0086362  43.4440923
  70.0073382  59.3836080  43.0106359  70.4270719  59.7261284  44.2699930
  70.3704916  59.8739142  43.5020751  63.5508301  55.0451535  46.5129357
  63.7101788  54.2894859  46.9181079  63.3701195  55.5942474  47.1670095
  63.5473660  55.0145349  46.6692063  71.4928604  47.2112770  47.0680147
  70.9969166  47.4076445  46.3771713  72.2497666  47.6105439  46.8968948
  71.5315429  47.2990504  46.9400283  68.7631484  50.8855116  43.6583457
  68.7873971  50.3515229  42.9696237  69.0142958  50.3772425  44.3209048
  68.8041403  50.7316020  43.6548102  67.2262419  59.1786675  51.1409496
  66.3758050  59.3158389  51.2767141  67.3890547  58.4450453  51.5857198
  67.1246283  59.0900776  51.2265095  66.4647170  56.1286444  45.3363100
  65.6339099  56.2960262  45.1298349  66.4098687  55.7522395  46.1211986
  66.3336585  56.0976176  45.4211629  64.2730953  49.6195337  50.9719511
  64.8983656  49.0757470  51.2448943  63.8181433  49.1390255  50.4027302
  64.2979213  49.4684819  50.9281105  64.8383213  54.4042036  35.8653218
  64.9786175  54.9014500  36.5681860  65.3365746  53.7028330  36.0067432
  64.9324294  54.3744015  35.9904797  64.8683436  55.2709147  33.1945795
  65.5028515  55.8669572  33.1295257  64.9509047  54.9712605  34.0091665
  64.9739987  55.3150055  33.3048882  77.8466002  57.8024624  46.0632159
  78.4383842  58.4421875  46.0950357  78.2824996  57.1047661  46.3524226
  77.9984433  57.7942975  46.1112992  66.4462419  51.2023122  33.1691237
  66.7678260  50.7226205  32.5150499  66.7089362  52.0122768  32.9782049
  66.5328444  51.2513020  33.0446729  69.6759391  62.2241997  46.6890053
  69.1684483  62.7777844  47.1330684  69.3786038  62.2850287  45.8708828
  69.5564276  62.3148308  46.6338510  71.8421574  50.5895316  45.5314716
  72.2676645  50.1367843  44.9198242  71.2278567  50.0355387  45.8079504
  71.8150219  50.4409293  45.4819741  72.2867172  66.1405254  34.6193997
  71.5696481  65.9666117  34.1541234  72.9373909  65.9057827  34.0869483
  72.2769022  66.0801047  34.4723215  70.2815797  47.0610416  38.9405293
  69.6384114  46.9108062  39.5090432  69.9415204  46.8152761  38.1754398
  70.1360874  47.0022539  38.9108308  74.8715143  55.0169843  38.3635302
  74.2006333  55.5599545  38.2348367  75.5654893  55.4864698  38.1216997
  74.8744011  55.1668114  38.3090829  68.9201877  67.1566555  43.5947060
  68.6967531  66.3985384  43.9631086  68.4311720  67.1864576  42.8727500
  68.8145326  67.0488779  43.5423801  75.0343270  51.4725727  41.2725675
  75.3870881  51.0455449  41.9471474  74.1758072  51.3876570  41.4026751
  74.9592715  51.3970467  41.3920685  63.7326955  54.1033246  39.3308521
  63.0138945  54.5197379  39.5981385  64.1039318  54.6687485  38.7800160
  63.6818887  54.2482528  39.2891328  73.0326536  54.7361095  45.2210517
  73.0124464  54.5544390  46.0745296  73.0805737  55.6073114  45.1970101
  73.0361177  54.8377633  45.3433812  70.9772866  61.3248287  51.1458994
  70.9368721  60.6797964  50.5604150  71.7896184  61.2684905  51.4584406
  71.0916020  61.2207254  51.1055943  67.5680334  67.3767013  41.0484145
  67.1540732  66.7141143  40.6587986  68.2527708  67.5244872  40.5279839
  67.6078705  67.3007671  40.9140642  70.9345628  66.5357098  41.8007761
  70.5361911  66.6459369  41.0328581  70.3196847  66.7439165  42.3834321
  70.7844517  66.5830666  41.7739061  69.5073530  53.1431246  34.6681901
  68.9138369  53.4648243  34.1166468  69.5448808  52.2972342  34.4603007
  69.4247919  53.0655574  34.5564672  76.4667331  46.5944138  42.2009987
  75.9598195  45.8873278  42.1331165  77.2634764  46.2637327  42.3311064
  76.5094570  46.4417290  42.2108982  72.3831346  53.1010751  38.0983651
  72.1545039  53.1243452  37.2562009  72.6429423  52.2768218  38.2178662
  72.3877534  52.9826831  37.9908849  66.6650575  54.9545224  47.7008751
  66.1529478  54.3466407  48.0593783  66.4930071  55.6701816  48.1682727
  66.5640212  54.9708523  47.8224975  61.5116290  53.3982799  50.3511113
  61.3418880  54.0584174  49.8059320  61.0682239  53.6089360  51.0723602
  61.4215623  53.5268781  50.3772743  65.4376109  51.6387297  39.3937847
  65.9133475  52.0004377  38.7588028  64.9364709  52.2943765  39.6737990
  65.4341468  51.7881486  39.3414588  78.6687470  61.1109065  35.1850852
  79.0521076  61.8600421  35.4148949  77.8731584  61.3574885  34.9262841
  78.6081253  61.2578759  35.1808425  70.5419645  52.8769468  50.1411007
  71.0991075  52.6483278  49.5089472  70.2180710  53.6375134  49.8646219
  70.5766055  52.9553305  50.0067504  68.2602762  55.9637122  51.1063014
  69.0114089  56.2788798  51.4202568  68.4525339  55.7616293  50.2796936
  68.3994177  55.9804503  51.0306410  67.4802762  53.7828497  32.7611231
  67.8601727  53.8008126  31.9762346  66.7395358  54.2282486  32.6402078
  67.4271600  53.8510271  32.6274799  75.1088053  52.0910688  38.3486809
  75.1082279  51.9359345  39.2071086  74.9044233  52.9373675  38.2928195
  75.0787830  52.1931309  38.4674749  72.8328905  56.7708190  42.0023016
  73.3282570  56.0531185  41.9627037  72.0228680  56.4678987  41.8877503
  72.7872798  56.6205836  41.9796742  68.2787516  60.6206003  34.1520021
  67.4698839  60.2972677  34.1053330  68.7862425  59.9139225  34.0848269
  68.2337183  60.4687319  34.1350315  74.8980724  59.5211877  44.6900145
  75.3235795  58.9986299  44.1370570  74.5337643  60.1192715  44.1688768
  74.9067326  59.5322104  44.5309155  64.5334803  67.8176095  43.4497491
  64.8481362  68.6312483  43.4575272  64.9428217  67.4326313  44.1179650
  64.6402901  67.8804797  43.5501582  71.4859323  63.2346142  41.0201303
  71.9570501  63.9486404  41.1891288  71.8219501  62.6344892  41.5561172
  71.6054438  63.2517606  41.1233678  73.5736308  64.8447455  53.1993375
  73.6833273  64.0556015  53.5550122  73.9027204  64.7553391  52.3967713
  73.6388713  64.7153308  53.1335765  68.4028818  48.0073612  47.9759397
  68.5356724  47.2104606  48.3040373  68.7873971  48.5340015  48.5557673
  68.4785147  47.9673529  48.1102900  72.1233269  63.0264076  47.7828995
  71.5754215  62.4021959  47.5149060  72.5846298  63.2158348  47.0673075
  72.1100479  62.9623126  47.6379426  71.4761173  44.9303938  44.5740491
  70.6707137  44.8201668  44.8908329  71.3467909  45.0316394  43.7170356
  71.3381306  44.9287608  44.4948531  74.9327134  51.0949430  45.1680187
  74.3490122  51.5958637  44.7557755  75.2531428  50.5878986  44.5344511
  74.8940309  51.0941265  45.0138695  67.4721933  50.0090025  35.4438862
  68.2937627  50.1788338  35.2020557  67.0091584  50.1637286  34.7205160
  67.5253095  50.0571758  35.3010507  66.0617265  48.0032787  46.2237291
  66.6061678  47.6623914  46.8141633  66.1154200  48.8618249  46.3658576
  66.1506384  48.0788047  46.3319164  61.8747823  61.7649203  43.0976099
  62.4792681  61.7245037  42.4689920  61.6675136  62.6120355  43.1280155
  61.9336721  61.8837206  43.0092216  71.6891596  64.0315148  44.3138336
  72.5089969  63.8878114  44.5754632  71.4085673  64.6561347  44.8554774
  71.7688339  64.1025500  44.4326276  57.1099106  60.7483821  42.9675022
  57.0123384  59.9380092  43.2765079  57.8927975  60.7275614  42.5821290
  57.2115242  60.6250911  42.9561885  81.3604931  70.7755651  42.0334143
  80.5042826  70.9364149  42.0843260  81.4072585  69.9047715  42.0539204
  81.2404042  70.6706453  42.0440209  70.5195871  76.3457048  39.6886481
  70.2846055  75.5124700  39.5818750  70.6581512  76.6261713  38.8747682
  70.5051533  76.2640551  39.5528836  72.8185958  68.5142778  42.5870789
  72.1990990  67.9235426  42.4180803  72.7169822  69.1054214  41.9535112
  72.7123634  68.5146861  42.4675778  79.9153854  70.2542320  36.9203252
  80.6134019  70.4330448  37.4124715  80.2306187  69.7312659  36.2973641
  80.0649191  70.2036092  36.9005262  72.5455091  72.0595060  44.8314358
  72.4213788  72.6457505  45.4664176  73.1973376  71.5655256  45.1326633
  72.6228741  72.0733864  44.9700287  78.0880718  65.6234717  41.0024526
  77.7584048  66.0745860  40.3328225  77.4125719  65.5450880  41.5497533
  77.9391154  65.6785852  40.9847750  80.9846381  71.7553609  32.6387936
  81.2242385  71.9631593  31.8263279  81.3062222  70.9511118  32.7476881
  81.0683539  71.6667711  32.5348489  76.2936672  63.6847005  36.4847474
  77.0482640  64.0525322  36.2464524  76.1164206  64.0586560  37.2526654
  76.3791150  63.7945193  36.5632363  75.9836299  71.9774481  50.2443382
  76.1556803  71.8680376  51.0928663  76.5205657  72.6228887  50.0074574
  76.0881303  72.0566483  50.3348479  74.6493736  66.0917324  33.1825587
  74.4669310  66.3089205  32.3566580  75.5119349  66.2056337  33.2384201
  74.7498326  66.1407222  33.0680074  80.3293456  63.0943735  36.2174611
  81.0579616  62.9159690  35.7712767  80.4188348  63.9361815  36.4281789
  80.4500118  63.1927613  36.1828129  70.2898016  74.5706412  45.0796302
  70.0236432  73.7545529  45.2387292  70.3036581  74.6159568  44.2091818
  70.2522739  74.4563317  44.9749784  74.1955763  69.3691497  31.6948060
  73.4813941  69.0829676  32.1070493  74.6799732  69.7088123  32.3354448
  74.1615127  69.3773146  31.8503695  75.0396623  68.1084791  47.7263310
  74.3468420  67.6381770  47.9724041  75.6556950  67.8823095  48.3005017
  75.0281153  68.0051922  47.8472462  70.6991430  75.3565192  42.3608046
  70.5167003  75.3312078  41.5080338  71.4341099  75.8264130  42.3996955
  70.7805494  75.4226554  42.2405965  73.7637182  72.0750195  48.8690155
  74.4877154  72.0603225  49.3555050  73.8653318  72.7845550  48.3712123
  73.8855391  72.1774898  48.8668942  70.6662340  72.2358692  42.5107113
  71.2435843  72.0995143  43.1499358  69.9676402  71.7794477  42.7652697
  70.6483362  72.1480959  42.6429403  77.4229643  73.8892748  40.7245596
  77.1648887  73.0564483  40.6976896  77.4778125  74.1150361  39.8838096
  77.3929420  73.7990519  40.5965733  82.5030693  65.9921199  40.8249689
  81.7987019  65.5030384  40.9833608  82.5515667  66.0043673  39.9538133
  82.4060744  65.9210847  40.7189029  76.3964355  71.4430511  41.2110491
  75.8213946  71.6022679  41.8474452  76.0200031  70.8065920  40.7478941
  76.2567167  71.3728324  41.2365049  80.0637643  69.9153860  46.0702869
  79.6752076  69.4908078  45.4155060  79.3992342  70.1636010  46.5779896
  79.9084571  69.8892581  46.0490737  66.1421174  71.0870585  39.2254931
  66.2281425  70.7102454  40.0068461  66.7696971  70.7131031  38.7474890
  66.2477725  70.9756068  39.2700409  77.6787305  72.8376272  33.7326878
  78.0632458  72.6183978  34.4843423  77.4298925  73.6639217  33.8627954
  77.6989378  72.9274418  33.8627954  77.8455845  66.1182687  53.4489462
  77.5309286  66.8882250  53.1859025  77.5245778  65.5552943  52.8641689
  77.7514764  66.1492956  53.3230812  75.3987742  64.5073208  39.0635658
  74.5310168  64.5795808  39.1293267  75.6862947  65.3095287  39.2523633
  75.3127490  64.6367355  39.1010425  74.8133410  75.1221847  41.1375099
  74.5246659  74.4959318  41.6720827  75.6816758  75.0642134  41.2039780
  74.8993662  75.0209391  41.2266054  77.4772351  68.7179938  52.1874677
  76.6672126  69.0237718  52.0764519  77.9547037  69.4385520  52.3027261
  77.4275830  68.8694539  52.1881748  73.3255094  67.9831468  36.5052534
  73.0379890  67.6132738  35.7684482  74.0125563  68.4526323  36.2436239
  73.3843992  67.9978437  36.3567610  76.1608766  71.8484416  37.9519939
  76.8831418  72.0125574  37.4923745  75.6816759  72.5694081  37.8459279
  76.1972497  71.9782645  37.8685553  73.8116383  74.2542488  47.0574079
  74.3237480  74.5326742  46.4082839  73.5252725  74.9931782  47.4236892
  73.8451246  74.4044842  47.0163957  70.8983289  68.7612680  37.3537816
  70.9999425  69.5638842  37.6818791  71.6939176  68.5600016  37.0560896
  71.0311195  68.8498579  37.3573171  77.3300108  66.3468877  47.1175121
  77.1383305  66.3624011  47.9674544  78.1798704  66.5432551  47.0941775
  77.4275830  66.3783228  47.2398415  71.7147021  68.8759858  45.0958937
  71.5732513  68.0243799  45.2203445  71.9987584  68.9188519  44.2721143
  71.7354867  68.7559608  44.9926561  81.8685613  70.7126949  39.2403425
  81.6220328  70.6322699  40.0740214  82.1970736  69.9280416  39.0465953
  81.8806857  70.5853214  39.3350948  77.8282641  73.4483667  48.6526408
  77.9726016  74.0284875  48.0169518  78.1758289  73.8259964  49.3576263
  77.9010102  73.5904371  48.6625403  80.0002558  72.6473835  46.4351540
  79.2525872  72.8404850  46.0299818  80.1544083  71.8219055  46.1975661
  79.9124986  72.5538947  46.3396946  80.2404335  66.5424386  47.3246944
  80.6976949  67.2748361  47.4519736  80.3160664  66.1190851  48.0834200
  80.3195305  66.5881624  47.4548020  72.4837326  66.7890206  48.4136387
  71.9479516  66.1770564  48.7297155  72.5455091  67.3638342  49.0670054
  72.4132959  66.7837134  48.5571814  78.1186713  68.5326490  44.1688768
  77.3282788  68.3517950  44.4906104  78.5147336  67.7553443  44.1519062
  78.0603589  68.3913951  44.2141316  80.6324543  71.0086749  48.6512267
  80.5683684  71.8696706  48.5232403  80.7721731  70.6918742  47.8507818
  80.6440013  71.0886916  48.5140480  74.6026082  74.1970940  38.2256442
  74.7590701  74.1317743  39.0812434  74.9426675  74.9719493  38.0135122
  74.6759317  74.3020138  38.3211036  82.2894496  68.4665128  47.1472106
  82.5036466  67.8276042  46.5935460  81.6728395  68.9110952  46.7179968
  82.2299825  68.4375272  47.0022537  71.1760344  71.3805891  38.5417209
  71.5559308  71.7990435  37.8777477  70.6015708  71.9619346  38.8486053
  71.1471669  71.5283749  38.4893950  81.6809225  61.5765064  42.1359449
  80.8102783  61.5503785  42.0892758  81.9349566  61.4042256  41.3185294
  81.5902785  61.5475207  42.0079585  78.7058365  63.5871292  43.5932919
  78.1896854  62.8951484  43.7184498  78.1452294  64.2542069  43.5395518
  78.5464879  63.5834550  43.6038985  80.7750599  64.1264252  45.4225772
  80.3882352  64.1513284  46.2039301  80.2883536  63.5605931  44.9700288
  80.6463108  64.0460003  45.4713675  80.4407740  61.0131238  47.7136031
  81.0700858  61.5491538  47.4357102  80.6093603  60.9208597  48.5649597
  80.5585535  61.0792600  47.7984560  80.2421655  65.8002432  49.9862443
  81.0695085  65.5287581  50.0421058  80.2629501  66.5963274  50.3426261
  80.3674505  65.8782187  50.0477626  74.8191145  72.9466295  43.1732704
  73.9779152  72.8470169  43.3811598  75.0281153  73.7161776  43.5247024
  74.7255838  73.0458339  43.2560019  72.2966712  70.5685832  41.0017454
  71.9023410  70.6428844  40.2267564  71.7406829  70.9543779  41.5525816
  72.1569524  70.6367607  40.9685114  78.6307810  70.8747694  42.4230301
  78.3270948  70.3203683  43.0240709  77.9287231  71.0539904  41.9358335
  78.4824020  70.8192477  42.4400007  77.6873907  68.1848214  36.9875003
  77.9633641  67.4667127  36.5752571  78.2872576  68.7833134  36.7796109
  77.8167172  68.1668585  36.8955764  81.1884428  65.8561732  35.2621598
  81.6428174  66.0272292  35.9869443  81.6624473  65.2429842  34.8619374
  81.3252748  65.7912617  35.3095360  74.7099953  75.3410058  44.5924337
  74.1187886  75.9819556  44.5627352  75.4720977  75.7647675  44.5655636
  74.7348214  75.4985896  44.5839484  75.1060576  66.5012055  45.2592354
  75.5662057  66.5750985  45.9967478  75.1516683  67.2993309  44.9092176
  75.1811131  66.6306202  45.3165111  76.7543926  67.1678750  49.8264381
  76.3629491  66.5212097  50.2620159  76.9229788  67.7590185  50.4458637
  76.7214836  67.1593018  49.9827087  78.5297448  72.5604266  36.3666605
  79.2739493  72.9478542  36.6049555  78.6758144  71.7161691  36.5307093
  78.6608033  72.4934739  36.4260575  80.4477023  64.3554525  41.3998467
  79.6013068  64.5277333  41.2739817  80.4448156  63.5503869  41.7364295
  80.3224173  64.2615554  41.4309594  81.5175324  68.1329739  42.2660525
  81.0435278  67.6071501  42.7765836  81.8893459  67.5859212  41.6975386
  81.5025212  67.9745736  42.2575672  71.8948354  70.1301246  47.6344070
  72.7573967  70.0296955  47.5481400  71.5640137  69.5495955  47.0729643
  71.9733550  70.0292873  47.5389476  75.2550140  68.9543695  44.2954489
  74.6303210  68.9662087  43.6880441  74.9195735  69.4303870  44.9445729
  75.1135631  69.0262212  44.3011057  75.4391888  67.2968813  30.3527174
  75.0904693  67.9488539  30.8158723  74.9588334  67.2825927  29.6251045
  75.3162132  67.3911867  30.3138265  71.9675815  77.0144155  45.7358253
  71.4375740  76.3236594  45.7853228  72.2400909  77.0054340  44.9070961
  71.9300537  76.9111287  45.6205669  74.5240885  70.5636843  46.5129357
  74.6834372  69.8080167  46.9181079  74.3433779  71.1127782  47.1670095
  74.5206244  70.5330657  46.6692063  79.7364068  66.4040424  43.6583457
  79.7606555  65.8700537  42.9696237  79.9875541  65.8957733  44.3209048
  79.7773986  66.2501328  43.6548102  67.2471657  73.6871919  43.0926601
  67.1415106  73.6418764  42.2278685  66.4971877  74.0325700  43.3740886
  67.1207260  73.7312827  43.0063931  76.0165390  65.1311243  43.0389201
  76.0563761  65.6320449  43.7523909  75.1915054  65.2221636  42.7695125
  75.9004916  65.2193059  43.1039740  77.4379753  71.6471752  45.3363100
  76.6071683  71.8145570  45.1298349  77.3831270  71.2707703  46.1211986
  77.3069168  71.6161484  45.4211629  75.2463536  65.1380645  50.9719511
  75.8716240  64.5942778  51.2448943  74.7914016  64.6575563  50.4027302
  75.2711797  64.9870127  50.9281105  75.8115797  69.9227344  35.8653218
  75.9518758  70.4199808  36.5681860  76.3098330  69.2213638  36.0067432
  75.9056878  69.8929323  35.9904797  75.8416019  70.7894455  33.1945795
  76.4761099  71.3854880  33.1295257  75.9241630  70.4897913  34.0091665
  75.9472570  70.8335363  33.3048882  77.4195002  66.7208430  33.1691237
  77.7410843  66.2411513  32.5150499  77.6821946  67.5308076  32.9782049
  77.5061028  66.7698328  33.0446729  72.3469007  72.9862296  36.4635341
  72.8561237  73.5826803  36.8446647  72.8203280  72.7188269  35.7811761
  72.4912383  73.0348111  36.4189864  81.2548380  62.5795724  38.9405293
  80.6116698  62.4293370  39.5090432  80.9147787  62.3338069  38.1754398
  81.1093457  62.5207847  38.9108308  74.7059539  69.6218554  39.3308521
  73.9871528  70.0382687  39.5981385  75.0771901  70.1872793  38.7800160
  74.6551471  69.7667836  39.2891328  80.4806113  68.6616554  34.6681901
  79.8870953  68.9833551  34.1166468  80.5181391  67.8157650  34.4603007
  80.3980503  68.5840882  34.5564672  77.6383158  70.4730532  47.7008751
  77.1262061  69.8651715  48.0593783  77.4662655  71.1887124  48.1682727
  77.5372795  70.4893831  47.8224975  72.4848873  68.9168107  50.3511113
  72.3151463  69.5769482  49.8059320  72.0414823  69.1274668  51.0723602
  72.3948207  69.0454089  50.3772743  76.4108692  67.1572605  39.3937847
  76.8866059  67.5189685  38.7588028  75.9097292  67.8129072  39.6737990
  76.4074051  67.3066794  39.3414588  81.5152229  68.3954776  50.1411007
  82.0723659  68.1668586  49.5089472  81.1913294  69.1560442  49.8646219
  81.5498639  68.4738613  50.0067504  69.3850938  71.8214973  45.6099603
  68.8377657  71.1515618  45.7280471  70.1743316  71.4544820  45.6743070
  69.4203121  71.6679959  45.6368304  79.2335346  71.4822430  51.1063014
  79.9846673  71.7974106  51.4202568  79.4257923  71.2801601  50.2796936
  79.3726760  71.4989811  51.0306410  78.4535346  69.3013805  32.7611231
  78.8334310  69.3193434  31.9762346  77.7127942  69.7467794  32.6402078
  78.4004183  69.3695579  32.6274799  68.1437907  71.0335780  42.7645626
  67.9659668  70.5812389  43.4900542  67.8556929  71.8361942  42.9484104
  68.0750860  71.0858338  42.8989129  69.8810377  73.5663504  39.8767385
  69.0155896  73.5549195  39.7650156  69.9809193  73.3793727  40.7238524
  69.7684544  73.5369565  39.9856329  79.3761401  63.5258920  47.9759397
  79.5089307  62.7289913  48.3040373  79.7606554  64.0525323  48.5557673
  79.4517730  63.4858837  48.1102900  82.4493757  60.4489246  44.5740491
  81.6439720  60.3386976  44.8908329  82.3200492  60.5501702  43.7170356
  82.3113890  60.4472916  44.4948531  78.4454516  65.5275333  35.4438862
  79.2670211  65.6973646  35.2020557  77.9824167  65.6822594  34.7205160
  78.4985679  65.5757066  35.3010507  77.0349848  63.5218095  46.2237291
  77.5794261  63.1809222  46.8141633  77.0886784  64.3803557  46.3658576
  77.1238968  63.5973354  46.3319164  72.8480407  77.2834511  43.0976099
  73.4525264  77.2430345  42.4689920  72.6407720  78.1305663  43.1280155
  72.9069304  77.4022514  43.0092216  68.0831689  76.2669129  42.9675022
  67.9855967  75.4565400  43.2765079  68.8660559  76.2460922  42.5821290
  68.1847826  76.1436219  42.9561885  31.5466560  -4.8244732  24.7311422
  30.7949460  -5.2029193  24.5027467  31.9952572  -4.7926298  23.9830232
  31.5016227  -4.8759124  24.5868924  36.5395811  -2.4505093  26.1008080
  36.9235191  -1.8818195  25.5612855  36.4754953  -3.1755583  25.6213896
  36.5869239  -2.4729630  25.9501943  32.9652056   0.1051250  28.3989050
  33.6089511   0.5464414  28.7885208  33.2908311  -0.6995324  28.3119309
  33.1083885   0.0516444  28.4434527  27.8833685  -3.9120382  27.8982734
  27.4001264  -3.1869892  27.8742317  28.6957004  -3.6144252  28.0092892
  27.9324433  -3.7618028  27.9110013  30.7377883  -3.3964206  28.0503014
  31.4398462  -3.9112217  28.1075770  30.6575366  -3.0690055  28.8549889
  30.8301643  -3.4249980  28.1775806  37.8801884  -3.3274266  32.7758961
  37.0817130  -3.5674766  33.0332829  38.3287895  -3.2759873  33.5226008
  37.8276495  -3.3551875  32.9243885  27.5317622  -5.2800782  30.2126339
  27.5721767  -5.0085931  29.3846118  28.0912146  -4.7558874  30.6284127
  27.6200968  -5.1625027  30.1518227  33.7631037  -4.0781953  22.7399295
  34.0529336  -4.4692972  22.0158521  34.4934518  -3.8965248  23.1804570
  33.9137921  -4.1088139  22.6982102  31.7036953  -2.1014571  25.8059444
  31.4837248  -2.3917216  26.5986111  31.4831475  -2.7599615  25.2777357
  31.6384547  -2.2414862  25.8448353  33.8704909  -0.7285181  24.5890137
  34.5228967  -1.2608738  24.8181163  33.1730517  -1.0816528  24.9758011
  33.8635626  -0.8595658  24.6802305  32.7030885  -3.4976662  32.4527482
  32.8520449  -4.0573746  31.8000887  33.4830887  -3.4184660  32.8360001
  32.8404979  -3.5691096  32.4124431  35.2284186  -3.3262019  33.7311973
  35.1527857  -3.9953208  34.2862761  35.1574045  -2.6244231  34.2452639
  35.2064793  -3.3217111  33.8888821  34.6175820   0.0806301  32.1889974
  35.1071751  -0.6182910  32.0065638  34.0460053  -0.2169829  32.7766031
  34.6060350  -0.0667475  32.2491014  35.6954950  -2.4611238  30.5287107
  35.4720604  -3.2192408  30.8971133  35.2064793  -2.4313216  29.8067546
  35.5898399  -2.5689013  30.4763848  34.3433407  -2.2410780  27.9824191
  33.9293805  -2.9036649  27.5928033  35.0280781  -2.0932921  27.4619886
  34.3831779  -2.3170121  27.8480689  37.7098701  -3.0820694  28.7347808
  37.3114984  -2.9718424  27.9668628  37.0949921  -2.8738628  29.3174368
  37.5597590  -3.0347126  28.7079107  31.3087877  -1.8001698  30.3837537
  31.6234435  -0.9865309  30.3915319  31.7181290  -2.1851479  31.0519697
  31.4155975  -1.7372995  30.4841629  48.1358004   1.1577858  28.9674190
  47.2795900   1.3186357  29.0183307  48.1825658   0.2869922  28.9879251
  48.0157115   1.0528660  28.9780256  42.5199144  10.6940576  24.7311422
  41.7682043  10.3156115  24.5027467  42.9685155  10.7259010  23.9830232
  42.4748811  10.6426184  24.5868924  51.4451721   7.4264384  38.5734646
  52.1518488   6.9316415  38.7021581  51.6339656   7.8673466  37.8437304
  51.5779626   7.4182734  38.4843692  47.9724104  11.1165946  20.1596969
  47.6375472  11.7942867  19.7241191  48.4850974  10.7271257  19.5713840
  47.9989685  11.1590524  20.0083760  47.5128395  13.0680215  26.1008080
  47.8967774  13.6367113  25.5612855  47.4487536  12.3429725  25.6213896
  47.5601822  13.0455678  25.9501943  50.9809825   3.2169902  31.6105842
  51.5265785   3.8954989  31.6699811  50.9226701   3.0757363  30.7507423
  51.0525739   3.2961904  31.4917902  44.0983900  10.7058969  26.9974194
  44.1994263   9.8959322  27.3071322  43.5025645  10.6115915  26.3673873
  44.0256439  10.5723997  26.9500432  52.7574894   4.6454509  22.4839569
  52.6414420   5.3962196  22.9131708  53.5530780   4.3878463  22.7335656
  52.8579483   4.7189356  22.5843661  43.9384640  15.6236558  28.3989050
  44.5822095  16.0649722  28.7885208  44.2640895  14.8189984  28.3119309
  44.0816468  15.5701752  28.4434527  37.2948944   6.7279255  26.6226528
  37.0599129   5.8946907  26.5158797  37.4334585   7.0083921  25.8087729
  37.2804607   6.6462758  26.4868883  39.5939032  -1.1035014  29.5210835
  38.9744063  -1.6942367  29.3520850  39.4922895  -0.5123579  28.8875159
  39.4876707  -1.1030932  29.4015825  44.6405219   8.6348533  23.7708912
  44.9621060   9.1753740  23.1670220  45.2877316   8.0645304  23.9031202
  44.7831274   8.6307708  23.7015947  46.6906927   0.6364527  23.8543299
  47.3887092   0.8152655  24.3464762  47.0059260   0.1134867  23.2313688
  46.8402264   0.5858300  23.8345309  39.3208165   2.4417267  31.7654404
  39.1966862   3.0279713  32.4004223  39.9726449   1.9477463  32.0666679
  39.3981814   2.4556072  31.9040334  46.8794863   7.0234973  23.8423090
  47.3188498   6.4152073  24.2877863  46.7299526   6.6442346  23.0708555
  46.9216328   6.8773444  23.7942257  44.3466506   5.6178984  31.0441915
  44.9915508   5.1251427  30.7252864  44.5868283   5.7603771  31.8707994
  44.4777091   5.5656427  31.1191449  46.8852597   8.4633890  30.6948808
  47.1675840   7.6685296  30.4735564  47.6138757   8.9414478  30.7153869
  47.0342161   8.4168487  30.6651823  50.4804199   5.3762154  20.7953859
  50.3955494   6.2323120  20.9403428  50.9688582   5.1006478  21.4636018
  50.5393096   5.4619475  20.9155941  51.4122632   1.9946948  22.2951594
  50.8834104   2.2106581  22.9548901  51.9347652   2.6883086  22.2152564
  51.4111085   2.1290085  22.3807194  56.8670685   7.5693252  27.6684639
  56.0368388   7.7803896  27.8318055  56.8179938   6.7430307  27.3926922
  56.7377421   7.4782859  27.6522004  43.3022240   5.8910165  21.0959062
  42.7179455   6.3960196  21.5024926  42.8992335   5.6652552  20.3555654
  43.1561544   5.9318413  21.0464088  38.8566269  11.6064926  27.8982734
  38.3733847  12.3315415  27.8742317  39.6689587  11.9041056  28.0092892
  38.9057017  11.7567280  27.9110013  44.9280423  10.3997107  30.5032548
  44.4107365  10.0404522  29.8993856  45.6254814   9.8759281  30.5138614
  44.9546004  10.2694795  30.4162807  48.5844015  10.8491921  36.4648721
  48.6727361  10.6618061  37.3126932  49.0133727  10.2029350  36.0653568
  48.6606117  10.7254928  36.5320473  46.1514475  10.1323081  35.4466384
  45.5885309   9.7195690  35.9706045  46.9135498  10.0575986  35.8659527
  46.1808923  10.0600481  35.5859384  47.7599455   2.1375817  19.5727983
  47.9995458   2.3453801  18.7603326  48.0815296   1.3333325  19.6816927
  47.8436613   2.0489918  19.4688536  41.7110466  12.1221102  28.0503014
  42.4131045  11.6073091  28.1075770  41.6307949  12.4495253  28.8549889
  41.8034227  12.0935328  28.1775806  42.7589373   2.3596689  37.1783429
  42.9309876   2.2502583  38.0268710  43.2958730   3.0051094  36.9414621
  42.8634377   2.4388690  37.2688526  41.0361242   8.3127454  27.5588622
  41.8750141   8.5450387  27.6062383  41.0673011   7.4431765  27.4895657
  41.1642959   8.2184400  27.5553266  41.6613945   8.7328329  31.8601927
  42.2012170   8.5899460  32.5305300  40.9783891   9.1325080  32.2285954
  41.6406098   8.7708000  32.0136349  51.0854829   4.4119330  27.0546952
  51.8412344   4.8450844  27.0935860  51.1917154   3.7624099  27.6281588
  51.2125000   4.3796813  27.1444977  54.1235001   8.2392607  27.8049355
  53.6870232   8.2429349  28.5608326  53.7897916   8.9198106  27.3728932
  54.0097621   8.3405063  27.8530187  48.6964074  10.2800940  39.1292505
  49.4804491  10.3931787  39.4948247  48.4960669   9.4542077  39.3251191
  48.7830100  10.1747659  39.2126891  37.0651090   4.9528620  32.0136349
  36.7989505   4.1367736  32.1727339  37.0789654   4.9981775  31.1431864
  37.0275812   4.8385525  31.9089831  40.9708837  -0.2486296  18.6288107
  40.2567014  -0.5348116  19.0410539  41.4552805   0.0910330  19.2694494
  40.9368200  -0.2404646  18.7843742  41.8149696  -1.5093002  34.6603357
  41.1221493  -1.9796022  34.9064088  42.4310023  -1.7354697  35.2345064
  41.8034226  -1.6125870  34.7812509  48.8534468  12.1911042  32.7758961
  48.0549713  11.9510542  33.0332829  49.3020479  12.2425435  33.5226008
  48.8009079  12.1633433  32.9243885  57.2579347   4.9573527  26.6968992
  57.9195781   4.3964195  26.5964900  56.6170759   4.4625557  27.0221683
  57.2608214   4.8009936  26.7301332  48.1456155   8.2543658  19.0049915
  48.5607303   7.9228682  18.3134411  47.3148084   8.0212560  18.8770052
  48.0844163   8.1714914  18.8840763  37.4744503   5.7387399  29.2948093
  37.2920077   5.7134285  28.4420385  38.2094172   6.2086337  29.3337002
  37.5558567   5.8048761  29.1746012  53.5444177   5.9738909  26.4380981
  53.7799767   6.1184108  25.6107831  53.6933741   6.7381317  26.8312494
  53.6009981   6.1077964  26.3744584  40.5390255   2.4572402  35.8030202
  41.2630227   2.4425433  36.2895096  40.6406391   3.1667757  35.3052170
  40.6608464   2.5597105  35.8008989  55.3734634   4.8140575  24.2750584
  55.7042851   5.3468215  23.6690679  55.9467722   4.8679463  24.9312535
  55.5068313   4.9010144  24.2828366  47.9135204   5.9371487  40.6679149
  47.1208185   6.2514998  40.8531768  48.0284131   6.1522955  39.8299933
  47.8130615   6.0155323  40.5717483  50.5866523   2.6605478  24.9574165
  50.6813378   3.3994772  25.4113790  49.9625367   2.2322953  25.3908729
  50.5075553   2.7066798  25.0882312  48.8418997   5.8391690  35.6064445
  49.4157859   5.2018935  35.7613009  48.7633801   5.8395773  34.7374103
  48.9152232   5.7456802  35.5010856  37.4415414   2.6180900  29.4447160
  38.0188916   2.4817351  30.0839405  36.7429475   2.1616684  29.6992744
  37.4236435   2.5303166  29.5769449  50.8389545   4.5054218  18.1911117
  50.7569707   4.5756405  19.0566104  51.4769265   5.0683961  17.9994857
  50.9209382   4.5993189  18.2901066  44.1982716   4.2714955  27.6585643
  43.9401960   3.4386690  27.6316942  44.2531199   4.4972568  26.8178143
  44.1682494   4.1812727  27.5305780  43.1717428   1.8252718  28.1450538
  42.5967019   1.9844886  28.7814499  42.7953104   1.1888127  27.6818988
  43.0320240   1.7550531  28.1705096  46.8390717   0.2976067  33.0042916
  46.4505149  -0.1269715  32.3495107  46.1745415   0.5458217  33.5119943
  46.6837644   0.2714788  32.9830784  32.9174247   1.4692793  26.1594978
  33.0034499   1.0924661  26.9408508  33.5450044   1.0953238  25.6814936
  33.0230798   1.3578275  26.2040456  47.9429655   4.5274672  21.2019723
  48.7570294   4.8189565  21.0902494  47.8788796   3.8734534  20.6278016
  48.0532394   4.4739867  21.1008560  54.1639145   7.2100668  35.6149299
  53.9277782   6.3788733  35.4961359  54.8082374   7.1586275  36.2004143
  54.2233816   7.0798356  35.6835192  43.8137563   7.9996189  26.3292035
  44.4511510   7.7607937  26.8743828  44.2392635   8.2033348  25.5945196
  43.9713729   7.9947199  26.3009192  38.5050205  10.2384526  30.2126339
  38.5454351  10.5099377  29.3846118  39.0644730  10.7626434  30.6284127
  38.5933551  10.3560281  30.1518227  44.4540378   3.2198479  20.6666924
  44.8385531   3.0006186  21.4183470  44.2051998   4.0461424  20.7968001
  44.4742451   3.3096625  20.7968001  55.1875566   6.9945117  31.6777593
  54.8821383   7.7273174  32.0390909  54.4681781   6.5883046  31.3970379
  55.0362908   7.0426850  31.6890730  46.1959035   8.4768612  28.0085821
  46.2698043   8.3143784  28.8627671  47.0128541   8.6658801  27.7646303
  46.3275394   8.4805354  28.0983847  39.9564792   8.8226475  25.0380265
  39.1302909   9.0688212  24.9114544  40.0176783   8.7438556  25.9042323
  39.8438959   8.8471424  25.1469209  44.7363621  11.4403355  22.7399295
  45.0261919  11.0492336  22.0158521  45.4667102  11.6220060  23.1804570
  44.8870505  11.4097169  22.6982102  45.3258366   6.2421101  33.8252425
  44.8270060   6.9536869  33.9037314  46.1358590   6.5621767  33.7870588
  45.3714473   6.3947949  33.8308994  42.6769536  13.4170737  25.8059444
  42.4569832  13.1268092  26.5986111  42.4564058  12.7585692  25.2777357
  42.6117131  13.2770446  25.8448353  41.5886484   5.5044054  28.0715146
  41.2999732   4.8781525  28.6060873  42.4569832   5.4464341  28.1379827
  41.6746735   5.4031598  28.1606101  44.8437492  14.7900127  24.5890137
  45.4961550  14.2576570  24.8181163  44.1463101  14.4368780  24.9758011
  44.8368210  14.6589650  24.6802305  41.7918757   7.1439305  23.9957511
  42.5464725   7.5252344  24.2092974  41.1989370   7.5950449  24.4504208
  41.8155471   7.2668132  24.0940390  52.8377410   7.1104541  23.9321116
  53.4035443   7.7697751  23.8479659  52.1905314   7.4554239  24.4037518
  52.8256167   7.2586483  23.9893873  44.2525424  -0.8997855  39.1214724
  43.4425200  -0.5940075  39.0104566  44.7300111  -0.1792272  39.2367308
  44.2028903  -0.7483254  39.1221795  43.1116984   8.3147866  29.3697627
  42.5897737   8.4548158  30.0549491  43.4991004   7.5558531  29.5599744
  43.0920684   8.2233390  29.4998703  40.1008168  -1.6346325  23.4392581
  39.8132963  -2.0045055  22.7024529  40.7878636  -1.1651470  23.1776286
  40.1597065  -1.6199356  23.2907657  49.3083989  10.0543326  23.3558195
  49.0670664   9.3211186  22.9485260  49.4885321  10.6030183  22.7024529
  49.2991612  10.0265717  23.1988418  44.5383309   5.3451885  24.7679118
  44.3426092   5.9526620  24.1739421  44.7617655   4.6519829  24.2870792
  44.5417950   5.3329411  24.6095198  42.9361839   2.2306623  24.8859986
  43.6584491   2.3947781  24.4263792  42.4569832   2.9516288  24.7799326
  42.9725570   2.3604853  24.8025600  40.5869456   4.6364696  33.9914126
  41.0990553   4.9148949  33.3422886  40.3005798   5.3753990  34.3576939
  40.6204319   4.7867049  33.9504004  54.7712871   3.7738409  27.5517913
  54.6846845   3.9293835  28.4052692  54.3163351   4.4176484  27.1777318
  54.6916127   3.8914164  27.6225019  37.6736362  -0.8565112  24.2877862
  37.7752499  -0.0538951  24.6158838  38.4692249  -1.0577777  23.9900943
  37.8064268  -0.7679214  24.2913218  38.4900094  -0.7417934  32.0298984
  38.3485586  -1.5933994  32.1543492  38.7740658  -0.6989274  31.2061190
  38.5107940  -0.8618184  31.9266608  52.5386735   7.8032515  29.9630253
  52.4001095   8.5013561  30.4678996  51.7586733   7.6481172  29.6066435
  52.4029962   7.8832682  29.9856528  50.8764821   4.1028891  36.2152635
  50.8712859   3.2308707  36.2195062  51.5825814   4.3017060  35.7422091
  50.9809825   4.0032765  36.1459670  44.6035714   3.8305874  35.5866455
  44.7479090   4.4107083  34.9509565  44.9511362   4.2082171  36.2916310
  44.6763175   3.9726579  35.5965450  46.7755631   3.0296043  33.3691587
  46.0278945   3.2227057  32.9639865  46.9297157   2.2041262  33.1315708
  46.6878059   2.9361154  33.2736993  43.6763469  12.0208646  32.4527482
  43.8253033  11.4611562  31.8000887  44.4563471  12.1000648  32.8360001
  43.8137563  11.9494212  32.4124431  54.0340108   7.1610769  20.7246753
  53.6546917   6.3747907  20.7176042  53.3706354   7.7097626  20.5818397
  53.8798583   7.1255593  20.7027550  46.2016770  12.1923289  33.7311973
  46.1260441  11.5232100  34.2862761  46.1306629  12.8941077  34.2452639
  46.1797376  12.1968197  33.8888821  46.8587016  10.7124288  24.5635579
  47.6236908  10.4433932  24.2418243  46.7565106  10.2274298  25.2805642
  46.9568512  10.6013853  24.6215406  49.3805677   7.7436472  16.5435528
  50.1478662   7.8036597  16.1341380  48.9336986   7.1716913  16.0591847
  49.4279104   7.6673048  16.4113239  50.2783473   6.5491128  28.8288261
  49.6028474   6.3176360  29.3301648  50.2875849   5.9412311  28.2030366
  50.1801977   6.4250053  28.8104413  47.4077616   1.3908957  35.5852314
  47.3436758   2.2518913  35.4572450  47.5474804   1.0740950  34.7847865
  47.4193087   1.4709123  35.4480526  52.2800207   9.4056260  21.0598438
  52.3620045  10.2123246  20.7359889  52.7649949   9.4252219  21.7839212
  52.3637365   9.5276922  21.1185337  46.0896710   4.0841096  29.7268516
  45.6658960   4.2845595  28.9907535  45.9141566   3.2369944  29.8392816
  46.0007591   3.9889877  29.6342207  41.3779155   4.5793147  25.1596489
  41.5343775   4.5139950  26.0152481  41.7179748   5.3541700  24.9475169
  41.4512390   4.6842346  25.2551083  47.9158300   3.9551031  24.0289852
  48.4573845   3.4521412  24.4928473  48.2304859   3.9016226  23.2179337
  48.0422697   3.8730452  23.9773664  51.7875407   8.1653678  41.1416764
  52.6010273   7.8938827  41.3021897  51.6270374   7.8661218  40.3376960
  51.8845356   8.0808604  41.0462170  46.0844750   9.3468383  21.3129880
  46.1537570   8.4882921  21.4522881  46.8633205   9.5640263  20.9848905
  46.2097600   9.2521247  21.2847037  50.4752237  11.7706084  25.5266374
  50.0832029  11.4672799  24.8089240  50.6305309  12.6075174  25.3371327
  50.4405827  11.8489921  25.3922871  37.9513417   1.7628098  25.4757256
  38.3312382   2.1812643  24.8117523  37.3768782   2.3441554  25.7826099
  37.9224742   1.9105957  25.4233997  50.6391912   8.3356073  25.4672404
  50.2806567   8.5070716  26.2436436  50.1530623   8.7969278  24.9100403
  50.5150609   8.4295044  25.4997673  45.4280277   4.0155238  18.0072638
  45.7172802   4.7920121  18.2816213  45.5152076   3.5043970  18.7087138
  45.4834534   4.0547156  18.1515136  48.3240165   1.8636472  39.8024162
  48.7939796   2.4878589  40.1892036  48.3702045   1.1953448  40.3617377
  48.4008041   1.8571152  39.9424233  51.7996651   9.2259969  36.4139605
  52.4376372   8.7320164  36.0802061  51.1570743   9.1537369  35.8291832
  51.7990878   9.1418977  36.2781960  51.8550908   9.9179777  33.0544962
  52.6443286   9.5668842  33.1747043  52.0294506  10.7316165  32.7921596
  51.9971190   9.9865634  33.0332830  41.5944218   3.3288503  30.1072751
  40.7532225   3.2292377  30.3151644  41.8034226   4.0983983  30.4587071
  41.5008911   3.4280546  30.1900065  39.0719785   0.9508040  27.9357501
  38.6776483   1.0251051  27.1607611  38.5159902   1.3365986  28.4865863
  38.9322598   1.0189814  27.9025161  45.4060883   1.2569902  29.3570348
  45.1024021   0.7025890  29.9580756  44.7040304   1.4362112  28.8698382
  45.2577093   1.2014684  29.3740054  43.4679234   8.4719623  34.0642446
  43.3599589   8.4821685  34.9304504  43.6775016   9.2974403  33.8747400
  43.4829345   8.5960697  34.1646537  41.4853026   5.7232265  31.5264383
  40.8940960   6.3641763  31.4967399  42.2474050   6.1469882  31.4995683
  41.5101287   5.8808103  31.5179531  57.6043448   5.5538035  32.5241662
  57.6626572   6.0024683  33.2701638  56.9709915   5.9636847  32.0871742
  57.5194743   5.6811769  32.5694210  51.2442543  11.1741577  28.9596408
  51.0462231  11.6632391  28.2652619  50.6230254  11.3782818  29.5380541
  51.1230107  11.2758115  28.9419631  45.3050521   2.9426473  23.3006652
  46.0492566   3.3300750  23.5389602  45.4511217   2.0983899  23.4647140
  45.4361106   2.8756946  23.3600622  38.6701427   0.5123453  34.5684117
  39.5327040   0.4119163  34.4821447  38.3393210  -0.0681837  34.0069689
  38.7486623   0.4115080  34.4729523  54.5565127   3.5754322  30.6107352
  54.3163350   2.7360737  30.6149778  55.0357134   3.6554489  31.3348125
  54.5917311   3.4635722  30.7182154  53.1616344   4.7405729  34.4941656
  53.8850543   4.2878255  34.3152676  52.8966307   5.0210395  33.7113984
  53.2297618   4.7156697  34.3520372  42.0303213  -0.6634098  31.2294535
  41.4056283  -0.6515706  30.6220488  41.6948808  -0.1873923  31.8785776
  41.8888705  -0.5915581  31.2351104  38.7428888   7.3966362  32.6698300
  38.2128813   6.7058801  32.7193274  39.0153982   7.3876548  31.8411008
  38.7053611   7.2933494  32.5545716  49.7748979   7.9792065  21.3935982
  50.4983178   8.4450178  21.2500556  49.3349570   8.0465674  20.6433579
  49.8164671   8.0575902  21.2620764  48.9435134   4.8389607  32.6436671
  48.3292127   4.2947657  32.9385307  49.4602419   4.3253844  32.1642487
  48.9290796   4.6826016  32.6160900  48.1831431   5.9093877  30.3780970
  47.7559039   5.2843596  29.9446405  48.1756375   5.6268799  31.2039977
  48.1190572   5.7746658  30.4360798  41.2993958   0.9459050  33.4469404
  41.4587445   0.1902374  33.8521126  41.1186852   1.4949990  34.1010142
  41.2959317   0.9152864  33.6032110  34.0224731   4.0694127  30.0266648
  33.9168180   4.0240971  29.1618732  33.2724951   4.4147907  30.3080933
  33.8960334   4.1135035  29.9403978  44.9748076   5.0794190  38.0749543
  44.1243706   5.2165904  38.2107188  45.1376204   4.3457968  38.5197245
  44.8731939   4.9908291  38.1605142  44.2132826   2.0293960  32.2703147
  43.3824756   2.1967778  32.0638395  44.1584344   1.6529911  33.0552033
  44.0822241   1.9983691  32.3551675  42.5868870   0.3049551  22.7993265
  42.7271831   0.8022015  23.5021906  43.0851403  -0.3964154  22.9407479
  42.6809951   0.2751530  22.9244844  42.6169093   1.1716662  20.1285842
  43.2514172   1.7677087  20.0635304  42.6994703   0.8720120  20.9431712
  42.7225644   1.2157570  20.2388928  55.5951658   3.7032140  32.9972206
  56.1869499   4.3429390  33.0290404  56.0310653   3.0055176  33.2864273
  55.7470090   3.6950490  33.0453039  47.4245048   8.1249512  33.6230100
  46.9170139   8.6785359  34.0670730  47.1271694   8.1857802  32.8048874
  47.3049933   8.2155823  33.5678557  39.1222081   3.3684503  23.3975388
  39.6314310   3.9649011  23.7786693  39.5956353   3.1010477  22.7151807
  39.2665456   3.4170318  23.3529911  50.0352829  12.0412770  21.5534043
  49.3182138  11.8673632  21.0881281  50.6859566  11.8065342  21.0209529
  50.0254679  11.9808562  21.4063261  46.6687534  13.0574070  30.5287107
  46.4453188  12.2992900  30.8971133  46.1797377  13.0872091  29.8067546
  46.5630983  12.9496295  30.4763848  41.4812612   0.0040762  26.2648568
  40.7624601   0.4204894  26.5321432  41.8524975   0.5695000  25.7140206
  41.4304544   0.1490043  26.2231375  48.7258523   7.2255802  38.0799041
  48.6854378   6.5805479  37.4944196  49.5381841   7.1692420  38.3924453
  48.8401676   7.1214769  38.0395990  45.3165990  13.2774528  27.9824191
  44.9026389  12.6148659  27.5928033  46.0013365  13.4252387  27.4619886
  45.3564362  13.2015187  27.8480689  48.6831285  12.4364614  28.7347808
  48.2847568  12.5466884  27.9668628  48.0682504  12.6446680  29.3174368
  48.5330174  12.4838182  28.7079107  44.4136232   0.8552739  34.6348798
  43.9015135   0.2473922  34.9933830  44.2415728   1.5709332  35.1022774
  44.3125869   0.8716038  34.7565022  39.2601946  -0.7009686  37.2851160
  39.0904537  -0.0408311  36.7399367  38.8167896  -0.4903124  38.0063649
  39.1701280  -0.5723704  37.3112789  56.4173127   7.0116580  22.1190899
  56.8006733   7.7607937  22.3488996  55.6217241   7.2582400  21.8602888
  56.3566909   7.1586274  22.1148472  36.1604011   2.2037180  32.5439650
  35.6130730   1.5337825  32.6620518  36.9496389   1.8367028  32.6083117
  36.1956195   2.0502166  32.5708350  46.0088419   1.8644637  38.0403061
  46.7599746   2.1796314  38.3542615  46.2010996   1.6623808  37.2136983
  46.1479833   1.8812019  37.9646457  45.2288419  -0.3163988  19.6951278
  45.6087384  -0.2984359  18.9102392  44.4881015   0.1290001  19.5742125
  45.1757257  -0.2482213  19.5614846  34.9190980   1.4157988  29.6985673
  34.7412741   0.9634597  30.4240588  34.6310002   2.2184149  29.8824150
  34.8503933   1.4680546  29.8329176  50.5814561   2.6715705  28.9363063
  51.0768227   1.9538700  28.8967083  49.7714337   2.3686503  28.8217550
  50.5358455   2.5213351  28.9136789  46.0273173   6.5213518  21.0860068
  45.2184496   6.1980192  21.0393377  46.5348082   5.8146740  21.0188316
  45.9822840   6.3694835  21.0690362  36.6563450   3.9485711  26.8107432
  35.7908970   3.9371402  26.6990203  36.7562266   3.7615934  27.6578571
  36.5437617   3.9191773  26.9196376  52.6466380   5.4219393  31.6240192
  53.0721452   4.8993814  31.0710617  52.2823300   6.0200230  31.1028815
  52.6552983   5.4329620  31.4649202  42.2820460  13.7183610  30.3837537
  42.5967019  14.5319999  30.3915319  42.6913873  13.3333829  31.0519697
  42.3888558  13.7812312  30.4841629  49.2344980   9.1353657  27.9541349
  49.7056158   9.8493919  28.1231335  49.5705158   8.5352407  28.4901219
  49.3540095   9.1525121  28.0573725  51.3221964  10.7454970  40.1333421
  51.4318930   9.9563531  40.4890169  51.6512861  10.6560906  39.3307760
  51.3874370  10.6160823  40.0675812  49.8718926   8.9271591  34.7169042
  49.3239872   8.3029475  34.4489107  50.3331955   9.1165863  34.0013121
  49.8586136   8.8630641  34.5719473  39.6233480   7.6656719  30.0316146
  40.2278338   7.6252553  29.4029967  39.4160793   8.5127871  30.0620202
  39.6822378   7.7844721  29.9432262  49.4377252   9.9322664  31.2478383
  50.2575626   9.7885630  31.5094678  49.1571330  10.5568863  31.7894821
  49.5173996  10.0033016  31.3666323  34.8584763   6.6491336  29.9015069
  34.7609041   5.8387608  30.2105126  35.6413632   6.6283129  29.5161337
  34.9600899   6.5258426  29.8901932  65.9090903  17.5887515  24.2121260
  65.8784907  18.4432152  24.3839529  66.5072251  17.2882808  24.7707403
  65.9928061  17.6704012  24.3196062  59.1090588  16.6763166  28.9674190
  58.2528483  16.8371665  29.0183307  59.1558241  15.8055230  28.9879251
  58.9889699  16.5713968  28.9780256  62.4184304  22.9449692  38.5734646
  63.1251071  22.4501723  38.7021581  62.6072240  23.3858774  37.8437304
  62.5512210  22.9368042  38.4843692  58.9456687  26.6351254  20.1596969
  58.6108056  27.3128175  19.7241191  59.4583558  26.2456565  19.5713840
  58.9722268  26.6775832  20.0083760  61.9542409  18.7355210  31.6105842
  62.4998369  19.4140297  31.6699811  61.8959285  18.5942671  30.7507423
  62.0258323  18.8147212  31.4917902  63.7307477  20.1639817  22.4839569
  63.6147003  20.9147504  22.9131708  64.5263364  19.9063771  22.7335656
  63.8312067  20.2374664  22.5843661  50.5671615  14.4150294  29.5210835
  49.9476647  13.8242941  29.3520850  50.4655479  15.0061729  28.8875159
  50.4609291  14.4154376  29.4015825  57.6639511  16.1549835  23.8543299
  58.3619676  16.3337963  24.3464762  57.9791843  15.6320175  23.2313688
  57.8134848  16.1043608  23.8345309  57.8527446  22.5420280  23.8423090
  58.2921082  21.9337381  24.2877863  57.7032109  22.1627654  23.0708555
  57.8948912  22.3958752  23.7942257  55.8366374  11.5242232  27.9364573
  55.5069704  11.9753376  27.2668272  55.1611376  11.4458395  28.4837580
  55.6876811  11.5793367  27.9187796  61.4536783  20.8947462  20.7953859
  61.3688078  21.7508428  20.9403428  61.9421166  20.6191786  21.4636018
  61.5125680  20.9804783  20.9155941  63.0442782   7.5127755  26.1814184
  62.7296223   8.2031234  26.6134606  62.5269724   7.4572537  25.4799684
  62.9207253   7.6062644  26.1411133  62.3855216  17.5132256  22.2951594
  61.8566687  17.7291889  22.9548901  62.9080236  18.2068394  22.2152564
  62.3843669  17.6475393  22.3807194  67.8403269  23.0878560  27.6684639
  67.0100972  23.2989204  27.8318055  67.7912521  22.2615615  27.3926922
  67.7110004  22.9968167  27.6522004  58.7332038  17.6561125  19.5727983
  58.9728042  17.8639108  18.7603326  59.0547879  16.8518633  19.6816927
  58.8169196  17.5675226  19.4688536  54.0422328   9.5854520  23.4187521
  54.7968297   9.9532838  23.1804571  53.8649863   9.9594075  24.1866700
  54.1276807   9.6952708  23.4972409  67.3357227  15.7348961  31.4635060
  66.4985648  15.8051148  31.6982655  67.3045458  15.7373456  30.5909363
  67.2075510  15.7459188  31.3694608  52.3979393  11.9924839  20.1165634
  52.2154966  12.2096720  19.2906627  53.2605006  12.1063852  20.1724248
  52.4983983  12.0414737  20.0020121  58.0779112   8.9951250  23.1514658
  58.8065273   8.8167205  22.7052814  58.1674005   9.8369330  23.3621836
  58.1985774   9.0935129  23.1168175  62.0587413  19.9304638  27.0546952
  62.8144928  20.3636152  27.0935860  62.1649737  19.2809407  27.6281588
  62.1857584  19.8982121  27.1444977  65.0967584  23.7577915  27.8049355
  64.6602816  23.7614657  28.5608326  64.7630500  24.4383414  27.3728932
  64.9830204  23.8590371  27.8530187  65.0165067  10.7991743  30.0478783
  65.6590975  10.8689847  30.6340698  65.2688088  10.1320965  29.5458324
  65.1487199  10.7118091  30.0606062  51.9441420  15.2699012  18.6288107
  51.2299597  14.9837192  19.0410539  52.4285389  15.6095638  19.2694494
  51.9100783  15.2780662  18.7843742  52.7882280  14.0092306  34.6603357
  52.0954076  13.5389286  34.9064088  53.4042607  13.7830610  35.2345064
  52.7766810  13.9059438  34.7812509  68.2311930  20.4758835  26.6968992
  68.8928364  19.9149503  26.5964900  67.5903342  19.9810865  27.0221683
  68.2340798  20.3195244  26.7301332  59.1188738  23.7728966  19.0049915
  59.5339887  23.4413990  18.3134411  58.2880668  23.5397868  18.8770052
  59.0576747  23.6900222  18.8840763  64.5176761  21.4924217  26.4380981
  64.7532350  21.6369416  25.6107831  64.6666325  22.2566625  26.8312494
  64.5742564  21.6263271  26.3744584  66.3467218  20.3325883  24.2750584
  66.6775435  20.8653523  23.6690679  66.9200306  20.3864771  24.9312535
  66.4800897  20.4195452  24.2828366  61.5599107  18.1790786  24.9574165
  61.6545961  18.9180080  25.4113790  60.9357950  17.7508261  25.3908729
  61.4808137  18.2252106  25.0882312  59.8151581  21.3576998  35.6064445
  60.3890442  20.7204243  35.7613009  59.7366384  21.3581081  34.7374103
  59.8884816  21.2642110  35.5010856  61.8122128  20.0239525  18.1911117
  61.7302291  20.0941713  19.0566104  62.4501849  20.5869269  17.9994857
  61.8941966  20.1178497  18.2901066  60.2516350  11.8928714  27.7589736
  59.5472676  11.4037900  27.9173655  60.3001324  11.9051189  26.8878180
  60.1546401  11.8218362  27.6529075  67.4546569  15.5736380  25.7790746
  67.1983134  14.7616321  25.5888629  68.2975883  15.5813947  25.5520933
  67.5412595  15.4548377  25.7175563  43.8906830  16.9878101  26.1594978
  43.9767082  16.6109969  26.9408508  44.5182628  16.6138546  25.6814936
  43.9963381  16.8763583  26.2040456  61.6349662   9.5136004  30.5166900
  62.0160173   8.8314175  30.9034774  60.8312946   9.2245606  30.3342565
  61.5726123   9.3703052  30.5470956  58.9162238  20.0459980  21.2019723
  59.7302877  20.3374873  21.0902494  58.8521380  19.3919842  20.6278016
  59.0264977  19.9925175  21.1008560  65.1371729  22.7285976  35.6149299
  64.9010366  21.8974041  35.4961359  65.7814958  22.6771583  36.2004143
  65.1966399  22.5983664  35.6835192  55.4272962  18.7383787  20.6666924
  55.8118114  18.5191494  21.4183470  55.1784582  19.5646732  20.7968001
  55.4475034  18.8281933  20.7968001  55.5941502  12.0190202  40.3829509
  55.2794943  12.7889765  40.1199071  55.2731435  11.4560458  39.7981736
  55.5000421  12.0500471  40.2570859  66.1608149  22.5130425  31.6777593
  65.8553966  23.2458482  32.0390909  65.4414365  22.1068354  31.3970379
  66.0095492  22.5612158  31.6890730  71.8609941  19.1523425  31.0045937
  71.7934442  19.1719384  30.1348524  71.8465604  19.9953753  31.2301608
  71.8488698  19.2797160  30.9098414  53.1473399  10.4080724  25.9975705
  52.2795825  10.4803323  26.0633314  53.4348603  11.2102803  26.1863680
  53.0613147  10.5374871  26.0350472  62.2706288  10.5558583  34.3287027
  63.0159880  10.3668393  33.9150452  61.8543592  11.0816821  33.7700883
  62.3191262  10.6060728  34.1851600  69.6468559  17.9267812  29.2792532
  70.1976480  17.2935881  29.5189624  69.6312674  18.4583204  29.9708036
  69.7253755  17.9116760  29.4171390  63.3496965  16.1664145  28.3897128
  63.0061731  15.4454480  28.7404378  63.4490007  15.9577996  27.5475486
  63.3139008  16.0288348  28.3168808  63.8109994  22.6289849  23.9321116
  64.3768027  23.2883059  23.8479659  63.1637897  22.9739547  24.4037518
  63.7988750  22.7771791  23.9893873  51.0740751  13.8838983  23.4392581
  50.7865547  13.5140253  22.7024529  51.7611219  14.3533838  23.1776286
  51.1329648  13.8985952  23.2907657  60.2816572  25.5728633  23.3558195
  60.0403248  24.8396494  22.9485260  60.4617905  26.1215490  22.7024529
  60.2724196  25.5451025  23.1988418  61.8687930  14.0855730  30.2656671
  61.0299031  14.1117009  30.0294934  61.9392298  14.7326465  30.8462018
  61.7556324  14.1851856  30.3165788  60.3157209  10.9841107  24.9984287
  61.0183561  10.7848855  24.5204245  60.0501397  10.2117049  25.3053130
  60.3803841  10.8404073  24.9729728  65.7445454  19.2923717  27.5517913
  65.6579429  19.4479143  28.4052692  65.2895934  19.9361792  27.1777318
  65.6648711  19.4099472  27.6225019  48.6468946  14.6620195  24.2877862
  48.7485082  15.4646357  24.6158838  49.4424832  14.4607531  23.9900943
  48.7796851  14.7506094  24.2913218  55.0785765  12.2476392  34.0515167
  54.8868962  12.2631527  34.9014591  55.9284361  12.4440066  34.0281822
  55.1761487  12.2790743  34.1738462  59.6171270  16.6134464  26.1743472
  59.3705985  16.5330215  27.0080261  59.9456393  15.8287932  25.9806000
  59.6292514  16.4860729  26.2690995  63.5119319  23.3217823  29.9630253
  63.3733678  24.0198869  30.4678996  62.7319317  23.1666480  29.6066435
  63.3762546  23.4017990  29.9856528  61.8497404  19.6214199  36.2152635
  61.8445443  18.7494015  36.2195062  62.5558398  19.8202368  35.7422091
  61.9542408  19.5218073  36.1459670  65.0072692  22.6796077  20.7246753
  64.6279501  21.8933215  20.7176042  64.3438937  23.2282934  20.5818397
  64.8531167  22.6440901  20.7027550  57.9889992  12.4431902  34.2586991
  58.4462606  13.1755876  34.3859783  58.0646321  12.0198367  35.0174246
  58.0680962  12.4889140  34.3888067  50.2322983  12.6897721  35.3476434
  49.6965173  12.0778079  35.6637202  50.2940748  13.2645857  36.0010101
  50.1618616  12.6844649  35.4911861  55.8672370  14.4334005  31.1028815
  55.0768445  14.2525466  31.4246150  56.2632993  13.6560958  31.0859109
  55.8089246  14.2921466  31.1481363  60.3538261  23.2621780  16.5435528
  61.1211246  23.3221905  16.1341380  59.9069570  22.6902221  16.0591847
  60.4011688  23.1858355  16.4113239  61.2516056  22.0676436  28.8288261
  60.5761058  21.8361668  29.3301648  61.2608432  21.4597619  28.2030366
  61.1534561  21.9435361  28.8104413  63.2532791  24.9241568  21.0598438
  63.3352628  25.7308554  20.7359889  63.7382533  24.9437527  21.7839212
  63.3369949  25.0462230  21.1185337  57.0629294  19.6026404  29.7268516
  56.6391543  19.8030903  28.9907535  56.8874149  18.7555252  29.8392816
  56.9740175  19.5075185  29.6342207  58.8890884  19.4736339  24.0289852
  59.4306429  18.9706720  24.4928473  59.2037443  19.4201534  23.2179337
  59.0155281  19.3915760  23.9773664  62.7607991  23.6838986  41.1416764
  63.5742856  23.4124135  41.3021897  62.6002957  23.3846526  40.3376960
  62.8577939  23.5993912  41.0462170  57.0577333  24.8653690  21.3129880
  57.1270154  24.0068229  21.4522881  57.8365788  25.0825571  20.9848905
  57.1830183  24.7706554  21.2847037  60.0380153  14.3672643  34.0812153
  60.2522122  13.7283558  33.5275507  59.4214052  14.8118467  33.6520014
  59.9785482  14.3382787  33.9362584  48.9246000  17.2813406  25.4757256
  49.3044965  17.6997951  24.8117523  48.3501365  17.8626862  25.7826099
  48.8957325  17.4291265  25.4233997  62.2019241  15.9761709  35.0195460
  61.3895923  15.6687599  35.1008632  62.6609176  15.4960709  35.5838172
  62.1499626  15.8598201  35.1150054  61.6124496  23.8541381  25.4672404
  61.2539150  24.0256023  26.2436436  61.1263206  24.3154586  24.9100403
  61.4883193  23.9480352  25.4997673  59.4294882   7.4772579  29.0699495
  58.5588440   7.4511300  29.0232805  59.6835223   7.3049771  28.2525341
  59.3388442   7.4482723  28.9419632  56.4012861  19.5340546  18.0072638
  56.6905386  20.3105428  18.2816213  56.4884660  19.0229277  18.7087138
  56.4567117  19.5732464  18.1515136  59.2972748  17.3821780  39.8024162
  59.7672380  18.0063896  40.1892036  59.3434629  16.7138756  40.3617377
  59.3740624  17.3756460  39.9424233  56.4544022   9.4878808  30.5272966
  55.9382511   8.7958999  30.6524545  55.8937951  10.1549585  30.4735565
  56.2950535   9.4842065  30.5379032  58.5236256  10.0271768  32.3565818
  58.1368009  10.0520799  33.1379348  58.0369193   9.4613446  31.9040335
  58.3948764   9.9467518  32.4053722  62.7729235  24.7445277  36.4139605
  63.4108955  24.2505472  36.0802061  62.1303327  24.6722677  35.8291832
  62.7723461  24.6604285  36.2781960  64.4986235  16.5934423  30.9805521
  64.0713843  16.5060771  30.2253620  63.8612288  16.7012198  31.5660365
  64.3415842  16.5967082  30.9550962  58.1893397   6.9138753  34.6476078
  58.8186515   7.4499053  34.3697149  58.3579260   6.8216112  35.4989644
  58.3071192   6.9800115  34.7324606  57.9907312  11.7009948  36.9202490
  58.8180741  11.4295097  36.9761104  58.0115158  12.4970789  37.2766308
  58.1160162  11.7789702  36.9817673  50.0452369  16.4693347  27.9357501
  49.6509067  16.5436359  27.1607611  49.4892486  16.8551294  28.4865863
  49.9055181  16.5375122  27.9025161  61.6817316   9.4474642  27.6161380
  61.8866909   9.3796949  28.4618377  61.3543740  10.2533463  27.5482558
  61.6632564   9.5560582  27.7321035  56.3793467  16.7755210  29.3570348
  56.0756604  16.2211198  29.9580756  55.6772888  16.9547420  28.8698382
  56.2309677  16.7199992  29.3740054  55.4359564  14.0855730  23.9215050
  55.7119298  13.3674642  23.5092617  56.0358233  14.6840649  23.7136156
  55.5652829  14.0676100  23.8295811  64.9351003  10.0006406  27.0964146
  64.3225317  10.4876808  27.4817877  65.0315178   9.3249897  27.6401797
  64.8588901   9.9724715  27.2343004  58.9370084  11.7569247  22.1961645
  59.3913831  11.9279807  22.9209489  59.4110130  11.1437358  21.7959421
  59.0738405  11.6920132  22.2435406  52.8546233  12.4019571  32.1932401
  53.3147714  12.4758500  32.9307525  52.9002339  13.2000825  31.8432222
  52.9296788  12.5313718  32.2505158  68.5776031  21.0723343  32.5241662
  68.6359155  21.5209991  33.2701638  67.9442499  21.4822155  32.0871742
  68.4927327  21.1997077  32.5694210  56.2783104  18.4611781  23.3006652
  57.0225149  18.8486058  23.5389602  56.4243801  17.6169207  23.4647140
  56.4093690  18.3942254  23.3600622  58.1962680  10.2562040  28.3338514
  57.3498725  10.4284848  28.2079863  58.1933812   9.4511384  28.6704342
  58.0709830  10.1623069  28.3649641  59.2660980  14.0337255  29.2000571
  58.7920935  13.5079017  29.7105882  59.6379116  13.4866727  28.6315433
  59.2510869  13.8753251  29.1915719  65.5297711  19.0939630  30.6107352
  65.2895934  18.2546045  30.6149778  66.0089718  19.1739797  31.3348125
  65.5649895  18.9821030  30.7182154  61.1944480  14.9273809  22.2626325
  60.6667499  15.0102553  21.5732034  61.6540188  15.6691681  22.2590970
  61.1846330  15.0494472  22.1601020  67.5302898  15.8741087  28.5636611
  67.2912668  15.8336922  27.7257396  67.6936799  16.7212239  28.6902332
  67.5193201  15.9933172  28.4590093  64.1348928  20.2591037  34.4941656
  64.8583127  19.8063563  34.3152676  63.8698890  20.5395702  33.7113984
  64.2030201  20.2342005  34.3520372  53.0035796  14.8551210  31.2294535
  52.3788867  14.8669602  30.6220488  52.6681391  15.3311385  31.8785776
  52.8621288  14.9269727  31.2351104  53.1877545  13.1976329  17.2867220
  52.8390349  13.8496054  17.7498770  52.7073991  13.1833442  16.5591092
  53.0647789  13.2919382  17.2478312  60.7481562  23.4977373  21.3935982
  61.4715761  23.9635486  21.2500556  60.3082153  23.5650982  20.6433579
  60.7897255  23.5761209  21.2620764  59.9167718  20.3574915  32.6436671
  59.3024711  19.8132965  32.9385307  60.4335002  19.8439151  32.1642487
  59.9023380  20.2011324  32.6160900  60.2146845   8.6305594  34.0020193
  59.7187406   8.8269268  33.3111760  60.9715907   9.0298262  33.8308995
  60.2533669   8.7183327  33.8740330  57.4849724  12.3047940  30.5923504
  57.5092212  11.7708052  29.9036284  57.7361198  11.7965248  31.2549095
  57.5259643  12.1508844  30.5888149  53.7651047  11.0318758  29.9729248
  53.8049418  11.5327964  30.6863956  52.9400711  11.1229151  29.7035171
  53.6490573  11.1200574  30.0379787  53.5601454  15.8234859  22.7993265
  53.7004415  16.3207323  23.5021906  54.0583987  15.1221154  22.9407479
  53.6542535  15.7936838  22.9244844  53.5901676  16.6901970  20.1285842
  54.2246756  17.2862395  20.0635304  53.6727287  16.3905428  20.9431712
  53.6958227  16.7342878  20.2388928  66.5684242  19.2217448  32.9972206
  67.1602082  19.8614698  33.0290404  67.0043236  18.5240484  33.2864273
  66.7202673  19.2135798  33.0453039  55.1680659  12.6215946  20.1031284
  55.4896500  12.1419028  19.4490546  55.4307603  13.4315592  19.9122095
  55.2546684  12.6705844  19.9786776  60.5639814  12.0088140  32.4654763
  60.9894886  11.5560666  31.8538289  59.9496807  11.4548210  32.7419550
  60.5368459  11.8602116  32.4159788  61.0085412  27.5598078  21.5534043
  60.2914722  27.3858940  21.0881281  61.6592150  27.3250650  21.0209529
  60.9987263  27.4993870  21.4063261  59.0034037   8.4803239  25.8745340
  58.3602355   8.3300886  26.4430478  58.6633444   8.2345585  25.1094445
  58.8579114   8.4215362  25.8448355  63.5933383  16.4362666  25.2975348
  62.9224573  16.9792368  25.1688414  64.2873134  16.9057522  25.0557043
  63.5962251  16.5860937  25.2430876  63.7561511  12.8918550  28.2065722
  64.1089121  12.4648273  28.8811520  62.8976312  12.8069393  28.3366798
  63.6810955  12.8163290  28.3260732  52.4545196  15.5226070  26.2648568
  51.7357185  15.9390202  26.5321432  52.8257558  16.0880308  25.7140206
  52.4037128  15.6675351  26.2231375  61.7544777  16.1553918  32.1550564
  61.7342704  15.9737214  33.0085343  61.8023977  17.0265937  32.1310148
  61.7579418  16.2570457  32.2773859  58.2291770  14.5624069  21.6021948
  57.6356609  14.8841066  21.0506515  58.2667048  13.7165165  21.3943054
  58.1466159  14.4848398  21.4904719  65.1885571   8.0136962  29.1350034
  64.6816436   7.3066101  29.0671212  65.9853005   7.6830151  29.2651111
  65.2312810   7.8610113  29.1449029  61.1049587  14.5203574  25.0323698
  60.8763280  14.5436275  24.1902056  61.3647663  13.6961041  25.1518708
  61.1095775  14.4019654  24.9248896  50.2334530  14.8175622  37.2851160
  50.0637120  15.4776997  36.7399367  49.7900480  15.0282184  38.0063649
  50.1433864  14.9461604  37.3112789  54.1594349  13.0580120  26.3277894
  54.6351716  13.4197200  25.6928075  53.6582949  13.7136588  26.6078036
  54.1559708  13.2074309  26.2754635  67.3905711  22.5301888  22.1190899
  67.7739317  23.2793244  22.3488996  66.5949824  22.7767708  21.8602888
  67.3299493  22.6771582  22.1148472  56.2021002  15.2021320  19.6951278
  56.5819967  15.2200949  18.9102392  55.4613598  15.6475309  19.5742125
  56.1489840  15.2703095  19.5614846  63.8306293  13.5103511  25.2826856
  63.8300519  13.3552168  26.1411133  63.6262473  14.3566498  25.2268242
  63.8006071  13.6124132  25.4014796  61.5547145  18.1901013  28.9363063
  62.0500810  17.4724008  28.8967083  60.7446921  17.8871811  28.8217550
  61.5091038  18.0398659  28.9136789  57.0005757  22.0398826  21.0860068
  56.1917079  21.7165500  21.0393377  57.5080665  21.3332048  21.0188316
  56.9555423  21.8880143  21.0690362  63.6198964  20.9404701  31.6240192
  64.0454035  20.4179122  31.0710617  63.2555884  21.5385538  31.1028815
  63.6285566  20.9514928  31.4649202  57.1247058   9.4266435  34.9099444
  57.2574964   8.6297429  35.2380420  57.5092211   9.9532838  35.4897720
  57.2003387   9.3866352  35.0442947  60.1979413   6.3496761  31.5080537
  59.3925377   6.2394491  31.8248376  60.0686149   6.4509217  30.6510403
  60.0599546   6.3480432  31.4288578  63.6545374  12.5142253  32.1020234
  63.0708363  13.0151460  31.6897802  63.9749668  12.0071810  31.4684558
  63.6158549  12.5134088  31.9478742  56.1940173  11.4282848  22.3778909
  57.0155867  11.5981161  22.1360604  55.7309824  11.5830109  21.6545207
  56.2471335  11.4764581  22.2350553  54.7835505   9.4225610  33.1577338
  55.3279918   9.0816737  33.7481680  54.8372441  10.2811072  33.2998622
  54.8724624   9.4980870  33.2659211  76.8823486  33.1072823  24.2121260
  76.8517491  33.9617460  24.3839529  77.4804835  32.8068116  24.7707403
  76.9660644  33.1889320  24.3196062  70.0823171  32.1948474  28.9674190
  69.2261067  32.3556973  29.0183307  70.1290825  31.3240538  28.9879251
  69.9622283  32.0899276  28.9780256  69.9189271  42.1536562  20.1596969
  69.5840639  42.8313483  19.7241191  70.4316141  41.7641873  19.5713840
  69.9454852  42.1961140  20.0083760  72.9274992  34.2540518  31.6105842
  73.4730952  34.9325605  31.6699811  72.8691868  34.1127979  30.7507423
  72.9990907  34.3332520  31.4917902  74.7040061  35.6825125  22.4839569
  74.5879587  36.4332811  22.9131708  75.4995948  35.4249079  22.7335656
  74.8044650  35.7559972  22.5843661  68.6372094  31.6735143  23.8543299
  69.3352259  31.8523271  24.3464762  68.9524427  31.1505483  23.2313688
  68.7867432  31.6228915  23.8345309  66.8098958  27.0427540  27.9364573
  66.4802288  27.4938684  27.2668272  66.1343960  26.9643703  28.4837580
  66.6609394  27.0978675  27.9187796  72.4269366  36.4132770  20.7953859
  72.3420661  37.2693736  20.9403428  72.9153750  36.1377094  21.4636018
  72.4858264  36.4990091  20.9155941  74.0175366  23.0313063  26.1814184
  73.7028807  23.7216541  26.6134606  73.5002307  22.9757845  25.4799684
  73.8939836  23.1247951  26.1411133  73.3587800  33.0317564  22.2951594
  72.8299271  33.2477197  22.9548901  73.8812820  33.7253702  22.2152564
  73.3576253  33.1660701  22.3807194  78.8135853  38.6063868  27.6684639
  77.9833556  38.8174512  27.8318055  78.7645105  37.7800923  27.3926922
  78.6842588  38.5153475  27.6522004  69.7064622  33.1746433  19.5727983
  69.9460626  33.3824416  18.7603326  70.0280463  32.3703941  19.6816927
  69.7901780  33.0860534  19.4688536  65.0154912  25.1039828  23.4187521
  65.7700880  25.4718145  23.1804571  64.8382447  25.4779383  24.1866700
  65.1009390  25.2138016  23.4972409  78.3089811  31.2534269  31.4635060
  77.4718232  31.3236456  31.6982655  78.2778042  31.2558764  30.5909363
  78.1808093  31.2644496  31.3694608  63.3711977  27.5110147  20.1165634
  63.1887550  27.7282028  19.2906627  64.2337590  27.6249160  20.1724248
  63.4716566  27.5600045  20.0020121  69.0511696  24.5136558  23.1514658
  69.7797856  24.3352513  22.7052814  69.1406589  25.3554638  23.3621836
  69.1718358  24.6120436  23.1168175  73.0319997  35.4489945  27.0546952
  73.7877512  35.8821460  27.0935860  73.1382321  34.7994715  27.6281588
  73.1590167  35.4167429  27.1444977  76.0700168  39.2763223  27.8049355
  75.6335400  39.2799965  28.5608326  75.7363083  39.9568722  27.3728932
  75.9562788  39.3775678  27.8530187  75.9897651  26.3177051  30.0478783
  76.6323559  26.3875155  30.6340698  76.2420671  25.6506273  29.5458324
  76.1219783  26.2303399  30.0606062  62.9174004  30.7884320  18.6288107
  62.2032181  30.5022500  19.0410539  63.4017972  31.1280946  19.2694494
  62.8833367  30.7965970  18.7843742  79.2044514  35.9944143  26.6968992
  79.8660948  35.4334811  26.5964900  78.5635926  35.4996173  27.0221683
  79.2073381  35.8380552  26.7301332  70.0921322  39.2914274  19.0049915
  70.5072470  38.9599298  18.3134411  69.2613251  39.0583176  18.8770052
  70.0309330  39.2085530  18.8840763  75.4909345  37.0109525  26.4380981
  75.7264934  37.1554724  25.6107831  75.6398908  37.7751933  26.8312494
  75.5475148  37.1448579  26.3744584  77.3199801  35.8511191  24.2750584
  77.6508018  36.3838831  23.6690679  77.8932889  35.9050079  24.9312535
  77.4533480  35.9380760  24.2828366  72.5331690  33.6976094  24.9574165
  72.6278545  34.4365388  25.4113790  71.9090534  33.2693569  25.3908729
  72.4540721  33.7437414  25.0882312  72.7854712  35.5424833  18.1911117
  72.7034874  35.6127021  19.0566104  73.4234432  36.1054577  17.9994857
  72.8674549  35.6363804  18.2901066  71.2248933  27.4114022  27.7589736
  70.5205260  26.9223208  27.9173655  71.2733907  27.4236496  26.8878180
  71.1278985  27.3403670  27.6529075  68.7855884  31.3346683  33.0042916
  68.3970316  30.9100901  32.3495107  68.1210582  31.5828833  33.5119943
  68.6302812  31.3085404  32.9830784  78.4279153  31.0921688  25.7790746
  78.1715718  30.2801629  25.5888629  79.2708467  31.0999255  25.5520933
  78.5145178  30.9733685  25.7175563  72.6082245  25.0321312  30.5166900
  72.9892757  24.3499483  30.9034774  71.8045530  24.7430914  30.3342565
  72.5458707  24.8888360  30.5470956  69.8894822  35.5645288  21.2019723
  70.7035461  35.8560180  21.0902494  69.8253963  34.9105150  20.6278016
  69.9997561  35.5110482  21.1008560  76.1104312  38.2471284  35.6149299
  75.8742950  37.4159349  35.4961359  76.7547541  38.1956891  36.2004143
  76.1698983  38.1168972  35.6835192  66.5674086  27.5375510  40.3829509
  66.2527527  28.3075073  40.1199071  66.2464018  26.9745766  39.7981736
  66.4733005  27.5685779  40.2570859  77.1340733  38.0315733  31.6777593
  76.8286550  38.7643789  32.0390909  76.4146948  37.6253662  31.3970379
  76.9828075  38.0797466  31.6890730  82.8342525  34.6708733  31.0045937
  82.7667025  34.6904692  30.1348524  82.8198187  35.5139060  31.2301608
  82.8221281  34.7982468  30.9098414  64.1205983  25.9266032  25.9975705
  63.2528408  25.9988631  26.0633314  64.4081187  26.7288111  26.1863680
  64.0345731  26.0560179  26.0350472  73.2438871  26.0743891  34.3287027
  73.9892463  25.8853701  33.9150452  72.8276176  26.6002129  33.7700883
  73.2923846  26.1246036  34.1851600  80.6201142  33.4453119  29.2792532
  81.1709064  32.8121189  29.5189624  80.6045258  33.9768512  29.9708036
  80.6986339  33.4302068  29.4171390  74.3229548  31.6849453  28.3897128
  73.9794314  30.9639788  28.7404378  74.4222591  31.4763304  27.5475486
  74.2871591  31.5473656  28.3168808  74.7842578  38.1475157  23.9321116
  75.3500610  38.8068367  23.8479659  74.1370481  38.4924855  24.4037518
  74.7721334  38.2957099  23.9893873  72.8420514  29.6041038  30.2656671
  72.0031615  29.6302317  30.0294934  72.9124881  30.2511773  30.8462018
  72.7288907  29.7037164  30.3165788  71.2889792  26.5026415  24.9984287
  71.9916145  26.3034163  24.5204245  71.0233981  25.7302357  25.3053130
  71.3536424  26.3589381  24.9729728  76.7178038  34.8109025  27.5517913
  76.6312012  34.9664451  28.4052692  76.2628518  35.4547100  27.1777318
  76.6381294  34.9284780  27.6225019  66.0518348  27.7661700  34.0515167
  65.8601545  27.7816835  34.9014591  66.9016944  27.9625374  34.0281822
  66.1494070  27.7976051  34.1738462  70.5903854  32.1319772  26.1743472
  70.3438568  32.0515523  27.0080261  70.9188977  31.3473240  25.9806000
  70.6025097  32.0046037  26.2690995  74.4851903  38.8403131  29.9630253
  74.3466262  39.5384177  30.4678996  73.7051901  38.6851788  29.6066435
  74.3495129  38.9203298  29.9856528  75.9805275  38.1981385  20.7246753
  75.6012084  37.4118523  20.7176042  75.3171521  38.7468242  20.5818397
  75.8263750  38.1626209  20.7027550  68.9622575  27.9617209  34.2586991
  69.4195190  28.6941184  34.3859783  69.0378904  27.5383675  35.0174246
  69.0413545  28.0074448  34.3888067  73.4349901  21.1407085  28.1280834
  73.5533470  21.5983548  27.3948136  73.2612077  20.3352346  27.8417051
  73.4269072  21.0900857  27.9781767  71.3270844  38.7807088  16.5435528
  72.0943829  38.8407213  16.1341380  70.8802153  38.2087529  16.0591847
  71.3744271  38.7043663  16.4113239  72.2248640  37.5861744  28.8288261
  71.5493641  37.3546976  29.3301648  72.2341016  36.9782926  28.2030366
  72.1267144  37.4620669  28.8104413  74.2265374  40.4426876  21.0598438
  74.3085212  41.2493862  20.7359889  74.7115116  40.4622835  21.7839212
  74.3102532  40.5647538  21.1185337  67.5373571  46.6362225  32.1889974
  68.0269501  45.9373014  32.0065638  66.9657803  46.3386095  32.7766031
  67.5258101  46.4888448  32.2491014  73.7340575  39.2024294  41.1416764
  74.5475440  38.9309443  41.3021897  73.5735541  38.9031834  40.3376960
  73.8310523  39.1179220  41.0462170  71.0112737  29.8857951  34.0812153
  71.2254706  29.2468866  33.5275507  70.3946636  30.3303775  33.6520014
  70.9518066  29.8568095  33.9362584  73.1751825  31.4947017  35.0195460
  72.3628506  31.1872907  35.1008632  73.6341759  31.0146017  35.5838172
  73.1232209  31.3783509  35.1150054  70.4027465  22.9957887  29.0699495
  69.5321023  22.9696608  29.0232805  70.6567806  22.8235079  28.2525341
  70.3121025  22.9668031  28.9419632  67.4276606  25.0064115  30.5272966
  66.9115094  24.3144307  30.6524545  66.8670535  25.6734893  30.4735565
  67.2683119  25.0027373  30.5379032  69.4968839  25.5457075  32.3565818
  69.1100592  25.5706107  33.1379348  69.0101776  24.9798754  31.9040335
  69.3681348  25.4652826  32.4053722  75.4718819  32.1119730  30.9805521
  75.0446427  32.0246079  30.2253620  74.8344872  32.2197506  31.5660365
  75.3148426  32.1152390  30.9550962  69.1625981  22.4324061  34.6476078
  69.7919099  22.9684361  34.3697149  69.3311844  22.3401420  35.4989644
  69.2803775  22.4985423  34.7324606  68.9639896  27.2195256  36.9202490
  69.7913325  26.9480405  36.9761104  68.9847742  28.0156097  37.2766308
  69.0892746  27.2975010  36.9817673  72.6549899  24.9659949  27.6161380
  72.8599493  24.8982257  28.4618377  72.3276323  25.7718771  27.5482558
  72.6365147  25.0745890  27.7321035  66.4092148  29.6041037  23.9215050
  66.6851882  28.8859950  23.5092617  67.0090817  30.2025957  23.7136156
  66.5385412  29.5861408  23.8295811  75.9083587  25.5191714  27.0964146
  75.2957901  26.0062116  27.4817877  76.0047762  24.8435205  27.6401797
  75.8321485  25.4910022  27.2343004  69.9102668  27.2754555  22.1961645
  70.3646415  27.4465115  22.9209489  70.3842714  26.6622666  21.7959421
  70.0470988  27.2105440  22.2435406  79.5508615  36.5908650  32.5241662
  79.6091739  37.0395299  33.2701638  78.9175083  37.0007463  32.0871742
  79.4659910  36.7182385  32.5694210  73.1907710  42.2112192  28.9596408
  72.9927398  42.7003007  28.2652619  72.5695421  42.4153434  29.5380541
  73.0695274  42.3128731  28.9419631  69.1695263  25.7747348  28.3338514
  68.3231309  25.9470156  28.2079863  69.1666396  24.9696692  28.6704342
  69.0442413  25.6808377  28.3649641  70.2393564  29.5522563  29.2000571
  69.7653518  29.0264325  29.7105882  70.6111700  29.0052035  28.6315433
  70.2243453  29.3938559  29.1915719  76.5030294  34.6124938  30.6107352
  76.2628517  33.7731353  30.6149778  76.9822302  34.6925105  31.3348125
  76.5382478  34.5006338  30.7182154  72.1677064  30.4459117  22.2626325
  71.6400082  30.5287861  21.5732034  72.6272772  31.1876989  22.2590970
  72.1578914  30.5679779  22.1601020  78.5035481  31.3926395  28.5636611
  78.2645251  31.3522230  27.7257396  78.6669383  32.2397547  28.6902332
  78.4925785  31.5118480  28.4590093  75.1081512  35.7776345  34.4941656
  75.8315710  35.3248871  34.3152676  74.8431474  36.0581010  33.7113984
  75.1762785  35.7527313  34.3520372  64.1610129  28.7161637  17.2867220
  63.8122933  29.3681362  17.7498770  63.6806574  28.7018750  16.5591092
  64.0380373  28.8104690  17.2478312  71.1879428  24.1490902  34.0020193
  70.6919990  24.3454576  33.3111760  71.9448490  24.5483570  33.8308995
  71.2266253  24.2368635  33.8740330  68.4582308  27.8233247  30.5923504
  68.4824795  27.2893360  29.9036284  68.7093782  27.3150556  31.2549095
  68.4992227  27.6694151  30.5888149  64.7383630  26.5504066  29.9729248
  64.7782002  27.0513272  30.6863956  63.9133295  26.6414459  29.7035171
  64.6223156  26.6385882  30.0379787  64.5334037  31.3420167  22.7993265
  64.6736998  31.8392631  23.5021906  65.0316570  30.6406462  22.9407479
  64.6275118  31.3122146  22.9244844  64.5634260  32.2087278  20.1285842
  65.1979339  32.8047703  20.0635304  64.6459871  31.9090736  20.9431712
  64.6690811  32.2528186  20.2388928  77.5416826  34.7402756  32.9972206
  78.1334666  35.3800006  33.0290404  77.9775820  34.0425792  33.2864273
  77.6935257  34.7321106  33.0453039  66.1413243  28.1401254  20.1031284
  66.4629084  27.6604336  19.4490546  66.4040186  28.9500900  19.9122095
  66.2279268  28.1891151  19.9786776  71.5372398  27.5273448  32.4654763
  71.9627469  27.0745974  31.8538289  70.9229391  26.9733518  32.7419550
  71.5101043  27.3787424  32.4159788  69.9766620  23.9988547  25.8745340
  69.3334938  23.8486194  26.4430478  69.6366027  23.7530893  25.1094445
  69.8311698  23.9400670  25.8448355  74.5665967  31.9547974  25.2975348
  73.8957157  32.4977676  25.1688414  75.2605717  32.4242829  25.0557043
  74.5694834  32.1046245  25.2430876  74.7294094  28.4103858  28.2065722
  75.0821704  27.9833581  28.8811520  73.8708896  28.3254701  28.3366798
  74.6543539  28.3348598  28.3260732  72.7277360  31.6739226  32.1550564
  72.7075288  31.4922522  33.0085343  72.7756561  32.5451245  32.1310148
  72.7312001  31.7755765  32.2773859  69.2024354  30.0809377  21.6021948
  68.6089193  30.4026374  21.0506515  69.2399631  29.2350473  21.3943054
  69.1198743  30.0033706  21.4904719  76.1618155  23.5322270  29.1350034
  75.6549019  22.8251409  29.0671212  76.9585588  23.2015458  29.2651111
  76.2045394  23.3795421  29.1449029  72.0782170  30.0388882  25.0323698
  71.8495863  30.0621583  24.1902056  72.3380247  29.2146349  25.1518708
  72.0828358  29.9204962  24.9248896  65.1326933  28.5765428  26.3277894
  65.6084299  28.9382508  25.6928075  64.6315532  29.2321896  26.6078036
  65.1292292  28.7259617  26.2754635  78.3638294  38.0487196  22.1190899
  78.7471900  38.7978552  22.3488996  77.5682408  38.2953016  21.8602888
  78.3032077  38.1956890  22.1148472  70.2370469  29.8147600  37.0751054
  70.7941899  29.5861409  36.4429519  69.9131534  30.5753265  36.7986266
  70.2716879  29.8931436  36.9407551  67.1753586  30.7206628  19.6951278
  67.5552551  30.7386257  18.9102392  66.4346182  31.1660617  19.5742125
  67.1222424  30.7888403  19.5614846  74.8038877  29.0288819  25.2826856
  74.8033103  28.8737476  26.1411133  74.5995057  29.8751806  25.2268242
  74.7738654  29.1309440  25.4014796  72.5279729  33.7086321  28.9363063
  73.0233394  32.9909316  28.8967083  71.7179504  33.4057119  28.8217550
  72.4823622  33.5583967  28.9136789  74.5931547  36.4590008  31.6240192
  75.0186619  35.9364430  31.0710617  74.2288467  37.0570846  31.1028815
  74.6018150  36.4700235  31.4649202  73.2687131  41.7825586  40.1333421
  73.3784097  40.9934147  40.4890169  73.5978028  41.6931522  39.3307760
  73.3339537  41.6531439  40.0675812  71.1711997  21.8682069  31.5080537
  70.3657961  21.7579799  31.8248376  71.0418732  21.9694525  30.6510403
  71.0332130  21.8665739  31.4288578  74.6277958  28.0327561  32.1020234
  74.0440946  28.5336768  31.6897802  74.9482252  27.5257118  31.4684558
  74.5891133  28.0319396  31.9478742  67.1672757  26.9468156  22.3778909
  67.9888451  27.1166469  22.1360604  66.7042408  27.1015417  21.6545207
  67.2203919  26.9949889  22.2350553  65.7568089  24.9410918  33.1577338
  66.3012502  24.6002045  33.7481680  65.8105024  25.7996380  33.2998622
  65.8457208  25.0166178  33.2659211  81.0555755  47.7133782  28.9674190
  80.1993650  47.8742281  29.0183307  81.1023408  46.8425846  28.9879251
  80.9354866  47.6084584  28.9780256  75.4396894  57.2496500  24.7311422
  74.6879794  56.8712038  24.5027467  75.8882906  57.2814934  23.9830232
  75.3946561  57.1982107  24.5868924  80.8921854  57.6721870  20.1596969
  80.5573223  58.3498791  19.7241191  81.4048725  57.2827181  19.5713840
  80.9187435  57.7146448  20.0083760  80.4326146  59.6236138  26.1008080
  80.8165525  60.1923037  25.5612855  80.3685287  58.8985649  25.6213896
  80.4799573  59.6011602  25.9501943  77.0181651  57.2614892  26.9974194
  77.1192014  56.4515246  27.3071322  76.4223396  57.1671839  26.3673873
  76.9454189  57.1279920  26.9500432  76.8582390  62.1792481  28.3989050
  77.5019846  62.6205646  28.7885208  77.1838646  61.3745908  28.3119309
  77.0014219  62.1257676  28.4434527  70.2146695  53.2835179  26.6226528
  69.9796879  52.4502831  26.5158797  70.3532336  53.5639845  25.8087729
  70.2002357  53.2018682  26.4868883  77.5602970  55.1904456  23.7708912
  77.8818811  55.7309664  23.1670220  78.2075066  54.6201228  23.9031202
  77.7029025  55.1863631  23.7015947  79.6104678  47.1920451  23.8543299
  80.3084843  47.3708579  24.3464762  79.9257011  46.6690791  23.2313688
  79.7600015  47.1414223  23.8345309  72.2405915  48.9973191  31.7654404
  72.1164612  49.5835637  32.4004223  72.8924200  48.5033387  32.0666679
  72.3179565  49.0111996  31.9040334  79.7992613  53.5790896  23.8423090
  80.2386249  52.9707997  24.2877863  79.6497276  53.1998270  23.0708555
  79.8414079  53.4329367  23.7942257  77.2664256  52.1734908  31.0441915
  77.9113259  51.6807351  30.7252864  77.5066033  52.3159695  31.8707994
  77.3974841  52.1212350  31.1191449  79.8050348  55.0189814  30.6948808
  80.0873591  54.2241220  30.4735564  80.5336508  55.4970401  30.7153869
  79.9539911  54.9724411  30.6651823  77.7831542  42.5612848  27.9364573
  77.4534872  43.0123991  27.2668272  77.1076543  42.4829011  28.4837580
  77.6341978  42.6163983  27.9187796  76.2219991  52.4466089  21.0959062
  75.6377206  52.9516120  21.5024926  75.8190086  52.2208475  20.3555654
  76.0759295  52.4874337  21.0464088  71.7764020  58.1620850  27.8982734
  71.2931598  58.8871339  27.8742317  72.5887338  58.4596980  28.0092892
  71.8254767  58.3123203  27.9110013  77.8478174  56.9553030  30.5032548
  77.3305115  56.5960445  29.8993856  78.5452565  56.4315205  30.5138614
  77.8743755  56.8250718  30.4162807  81.5041766  57.4047844  36.4648721
  81.5925111  57.2173985  37.3126932  81.9331478  56.7585274  36.0653568
  81.5803868  57.2810852  36.5320473  79.0712225  56.6879004  35.4466384
  78.5083060  56.2751614  35.9706045  79.8333249  56.6131910  35.8659527
  79.1006674  56.6156405  35.5859384  80.6797205  48.6931741  19.5727983
  80.9193209  48.9009724  18.7603326  81.0013046  47.8889249  19.6816927
  80.7634363  48.6045842  19.4688536  75.9887496  40.6225136  23.4187521
  76.7433464  40.9903453  23.1804571  75.8115030  40.9964691  24.1866700
  76.0741974  40.7323324  23.4972409  74.6308217  58.6777026  28.0503014
  75.3328796  58.1629015  28.1075770  74.5505700  59.0051177  28.8549889
  74.7231977  58.6491252  28.1775806  75.6787123  48.9152612  37.1783429
  75.8507627  48.8058507  38.0268710  76.2156481  49.5607018  36.9414621
  75.7832127  48.9944614  37.2688526  74.3444560  43.0295455  20.1165634
  74.1620134  43.2467336  19.2906627  75.2070173  43.1434468  20.1724248
  74.4449150  43.0785353  20.0020121  73.9558992  54.8683378  27.5588622
  74.7947892  55.1006310  27.6062383  73.9870761  53.9987689  27.4895657
  74.0840710  54.7740324  27.5553266  74.5811695  55.2884253  31.8601927
  75.1209920  55.1455384  32.5305300  73.8981642  55.6881004  32.2285954
  74.5603849  55.3263924  32.0136349  80.0244279  40.0321866  23.1514658
  80.7530440  39.8537821  22.7052814  80.1139172  40.8739946  23.3621836
  80.1450942  40.1305744  23.1168175  81.6161825  56.8356863  39.1292505
  82.4002242  56.9487711  39.4948247  81.4158419  56.0098001  39.3251191
  81.7027850  56.7303583  39.2126891  69.9848840  51.5084544  32.0136349
  69.7187256  50.6923660  32.1727339  69.9987404  51.5537699  31.1431864
  69.9473563  51.3941448  31.9089831  73.8906587  46.3069628  18.6288107
  73.1764764  46.0207807  19.0410539  74.3750556  46.6466254  19.2694494
  73.8565951  46.3151278  18.7843742  74.7347447  45.0462922  34.6603357
  74.0419243  44.5759902  34.9064088  75.3507774  44.8201226  35.2345064
  74.7231977  44.9430054  34.7812509  81.7732218  58.7466965  32.7758961
  80.9747464  58.5066466  33.0332829  82.2218230  58.7981358  33.5226008
  81.7206829  58.7189357  32.9243885  81.0653905  54.8099582  19.0049915
  81.4805054  54.4784606  18.3134411  80.2345835  54.5768484  18.8770052
  81.0041914  54.7270838  18.8840763  70.3942254  52.2943323  29.2948093
  70.2117827  52.2690209  28.4420385  71.1291923  52.7642261  29.3337002
  70.4756318  52.3604685  29.1746012  73.4588006  49.0128326  35.8030202
  74.1827978  48.9981356  36.2895096  73.5604142  49.7223681  35.3052170
  73.5806215  49.1153029  35.8008989  80.8332955  52.4927410  40.6679149
  80.0405936  52.8070922  40.8531768  80.9481882  52.7078879  39.8299933
  80.7328366  52.5711247  40.5717483  81.7616748  52.3947614  35.6064445
  82.3355610  51.7574858  35.7613009  81.6831552  52.3951697  34.7374103
  81.8349983  52.3012726  35.5010856  70.3613164  49.1736824  29.4447160
  70.9386667  49.0373274  30.0839405  69.6627226  48.7172608  29.6992744
  70.3434186  49.0859090  29.5769449  77.1180467  50.8270879  27.6585643
  76.8599711  49.9942614  27.6316942  77.1728949  51.0528492  26.8178143
  77.0880244  50.7368651  27.5305780  82.1981517  42.9299330  27.7589736
  81.4937843  42.4408515  27.9173655  82.2466491  42.9421804  26.8878180
  82.1011568  42.8588978  27.6529075  79.7588467  46.8531991  33.0042916
  79.3702900  46.4286209  32.3495107  79.0943166  47.1014141  33.5119943
  79.6035395  46.8270712  32.9830784  80.8627406  51.0830596  21.2019723
  81.6768044  51.3745488  21.0902494  80.7986547  50.4290458  20.6278016
  80.9730145  51.0295790  21.1008560  76.7335314  54.5552113  26.3292035
  77.3709261  54.3163861  26.8743828  77.1590385  54.7589272  25.5945196
  76.8911480  54.5503123  26.3009192  71.4247956  56.7940450  30.2126339
  71.4652101  57.0655301  29.3846118  71.9842480  57.3182358  30.6284127
  71.5131302  56.9116205  30.1518227  77.3738129  49.7754403  20.6666924
  77.7583282  49.5562110  21.4183470  77.1249749  50.6017348  20.7968001
  77.3940201  49.8652549  20.7968001  77.5406669  43.0560818  40.3829509
  77.2260110  43.8260381  40.1199071  77.2196602  42.4931074  39.7981736
  77.4465588  43.0871087  40.2570859  79.1156786  55.0324536  28.0085821
  79.1895794  54.8699708  28.8627671  79.9326292  55.2214725  27.7646303
  79.2473144  55.0361278  28.0983847  72.8762542  55.3782399  25.0380265
  72.0500660  55.6244136  24.9114544  72.9374534  55.2994479  25.9042323
  72.7636709  55.4027348  25.1469209  75.0938566  41.4451340  25.9975705
  74.2260992  41.5173939  26.0633314  75.3813771  42.2473418  26.1863680
  75.0078314  41.5745487  26.0350472  77.6561371  57.9959279  22.7399295
  77.9459670  57.6048260  22.0158521  78.3864852  58.1775984  23.1804570
  77.8068256  57.9653093  22.6982102  78.2456117  52.7977025  33.8252425
  77.7467810  53.5092792  33.9037314  79.0556341  53.1177691  33.7870588
  78.2912223  52.9503873  33.8308994  75.5967287  59.9726661  25.8059444
  75.3767582  59.6824016  26.5986111  75.3761809  59.3141616  25.2777357
  75.5314881  59.8326370  25.8448353  74.5084234  52.0599978  28.0715146
  74.2197483  51.4337449  28.6060873  75.3767582  52.0020265  28.1379827
  74.5944486  51.9587522  28.1606101  77.7635243  61.3456051  24.5890137
  78.4159301  60.8132493  24.8181163  77.0660852  60.9924703  24.9758011
  77.7565961  61.2145574  24.6802305  74.7116508  53.6995229  23.9957511
  75.4662476  54.0808268  24.2092974  74.1187120  54.1506372  24.4504208
  74.7353221  53.8224056  24.0940390  77.1723175  45.6558069  39.1214724
  76.3622950  45.9615849  39.0104566  77.6497861  46.3763651  39.2367308
  77.1226653  45.8072670  39.1221795  76.0314734  54.8703790  29.3697627
  75.5095488  55.0104082  30.0549491  76.4188755  54.1114454  29.5599744
  76.0118435  54.7789314  29.4998703  73.0205918  44.9209599  23.4392581
  72.7330714  44.5510869  22.7024529  73.7076387  45.3904454  23.1776286
  73.0794816  44.9356568  23.2907657  82.2281739  56.6099249  23.3558195
  81.9868415  55.8767110  22.9485260  82.4083072  57.1586106  22.7024529
  82.2189363  56.5821640  23.1988418  77.4581060  51.9007809  24.7679118
  77.2623843  52.5082544  24.1739421  77.6815405  51.2075753  24.2870792
  77.4615701  51.8885335  24.6095198  75.8559590  48.7862547  24.8859986
  76.5782242  48.9503705  24.4263792  75.3767583  49.5072212  24.7799326
  75.8923321  48.9160777  24.8025600  73.5067207  51.1920619  33.9914126
  74.0188304  51.4704873  33.3422886  73.2203549  51.9309914  34.3576939
  73.5402070  51.3422973  33.9504004  82.2622376  42.0211723  24.9984287
  82.9648729  41.8219471  24.5204245  81.9966564  41.2487665  25.3053130
  82.3269008  41.8774689  24.9729728  70.5934113  45.6990811  24.2877862
  70.6950249  46.5016973  24.6158838  71.3890000  45.4978147  23.9900943
  70.7262019  45.7876710  24.2913218  81.5636437  47.6505080  26.1743472
  81.3171152  47.5700831  27.0080261  81.8921560  46.8658548  25.9806000
  81.5757681  47.5231345  26.2690995  77.5233465  50.3861798  35.5866455
  77.6676840  50.9663006  34.9509565  77.8709113  50.7638095  36.2916310
  77.5960926  50.5282502  35.5965450  79.6953382  49.5851967  33.3691587
  78.9476696  49.7782981  32.9639865  79.8494907  48.7597186  33.1315708
  79.6075810  49.4917078  33.2736993  76.5961220  58.5764570  32.4527482
  76.7450783  58.0167486  31.8000887  77.3761222  58.6556572  32.8360001
  76.7335313  58.5050136  32.4124431  79.1214520  58.7479213  33.7311973
  79.0458191  58.0788024  34.2862761  79.0504379  59.4497001  34.2452639
  79.0995127  58.7524120  33.8888821  79.9355159  43.4802517  34.2586991
  80.3927773  44.2126492  34.3859783  80.0111488  43.0568983  35.0174246
  80.0146129  43.5259755  34.3888067  79.7784767  57.2680212  24.5635579
  80.5434658  56.9989856  24.2418243  79.6762857  56.7830222  25.2805642
  79.8766263  57.1569777  24.6215406  77.8137537  45.4704621  31.1028815
  77.0233612  45.2896081  31.4246150  78.2098160  44.6931574  31.0859109
  77.7554413  45.3292082  31.1481363  80.3275367  47.9464880  35.5852314
  80.2634508  48.8074837  35.4572450  80.4672555  47.6296874  34.7847865
  80.3390837  48.0265047  35.4480526  79.0094461  50.6397020  29.7268516
  78.5856710  50.8401519  28.9907535  78.8339316  49.7925868  29.8392816
  78.9205342  50.5445801  29.6342207  78.5106155  62.1547533  32.1889974
  79.0002085  61.4558322  32.0065638  77.9390387  61.8571403  32.7766031
  78.4990685  62.0073756  32.2491014  74.2976906  51.1349071  25.1596489
  74.4541525  51.0695874  26.0152481  74.6377499  51.9097624  24.9475169
  74.3710141  51.2398269  25.2551083  80.8356051  50.5106955  24.0289852
  81.3771596  50.0077336  24.4928473  81.1502610  50.4572149  23.2179337
  80.9620448  50.4286376  23.9773664  79.0042500  55.9024306  21.3129880
  79.0735321  55.0438845  21.4522881  79.7830956  56.1196187  20.9848905
  79.1295350  55.8077170  21.2847037  81.9845320  45.4043259  34.0812153
  82.1987290  44.7654174  33.5275507  81.3679219  45.8489083  33.6520014
  81.9250649  45.3753403  33.9362584  70.8711168  48.3184022  25.4757256
  71.2510132  48.7368567  24.8117523  70.2966532  48.8997477  25.7826099
  70.8422492  48.4661880  25.4233997  81.3760049  38.5143195  29.0699495
  80.5053607  38.4881916  29.0232805  81.6300390  38.3420387  28.2525341
  81.2853609  38.4853339  28.9419632  78.3478028  50.5711162  18.0072638
  78.6370553  51.3476044  18.2816213  78.4349827  50.0599893  18.7087138
  78.4032284  50.6103080  18.1515136  81.2437916  48.4192396  39.8024162
  81.7137547  49.0434512  40.1892036  81.2899796  47.7509371  40.3617377
  81.3205791  48.4127076  39.9424233  78.4009189  40.5249423  30.5272966
  77.8847678  39.8329615  30.6524545  77.8403118  41.1920200  30.4735565
  78.2415702  40.5212681  30.5379032  80.4701423  41.0642383  32.3565818
  80.0833176  41.0891415  33.1379348  79.9834360  40.4984062  31.9040335
  80.3413932  40.9838134  32.4053722  80.1358564  37.9509369  34.6476078
  80.7651682  38.4869669  34.3697149  80.3044427  37.8586728  35.4989644
  80.2536359  38.0170731  34.7324606  79.9372479  42.7380564  36.9202490
  80.7645909  42.4665713  36.9761104  79.9580325  43.5341405  37.2766308
  80.0625329  42.8160318  36.9817673  74.5141969  49.8844426  30.1072751
  73.6729976  49.7848301  30.3151644  74.7231977  50.6539907  30.4587071
  74.4206662  49.9836470  30.1900065  71.9917536  47.5063963  27.9357501
  71.5974234  47.5806975  27.1607611  71.4357653  47.8921910  28.4865863
  71.8520348  47.5745738  27.9025161  78.3258634  47.8125826  29.3570348
  78.0221772  47.2581814  29.9580756  77.6238055  47.9918036  28.8698382
  78.1774844  47.7570608  29.3740054  77.3824731  45.1226345  23.9215050
  77.6584465  44.4045258  23.5092617  77.9823400  45.7211265  23.7136156
  77.5117996  45.1046716  23.8295811  76.3876985  55.0275546  34.0642446
  76.2797340  55.0377608  34.9304504  76.5972766  55.8530327  33.8747400
  76.4027096  55.1516621  34.1646537  80.8835252  42.7939863  22.1961645
  81.3378998  42.9650423  22.9209489  81.3575297  42.1807973  21.7959421
  81.0203572  42.7290748  22.2435406  74.4050777  52.2788189  31.5264383
  73.8138710  52.9197687  31.4967399  75.1671801  52.7025806  31.4995683
  74.4299038  52.4364027  31.5179531  74.8011400  43.4390186  32.1932401
  75.2612881  43.5129116  32.9307525  74.8467507  44.2371441  31.8432222
  74.8761955  43.5684334  32.2505158  76.4494750  44.1056881  36.7604428
  76.0580315  43.4590228  37.1960206  76.6180612  44.6968317  37.3798684
  76.4165660  44.0971149  36.9167134  78.2248272  49.4982397  23.3006652
  78.9690317  49.8856673  23.5389602  78.3708968  48.6539822  23.4647140
  78.3558857  49.4312870  23.3600622  80.1427847  41.2932656  28.3338514
  79.2963892  41.4655464  28.2079863  80.1398980  40.4882000  28.6704342
  80.0174997  41.1993685  28.3649641  81.2126147  45.0707870  29.2000571
  80.7386102  44.5449632  29.7105882  81.5844283  44.5237343  28.6315433
  81.1976036  44.9123867  29.1915719  71.5899178  47.0679377  34.5684117
  72.4524791  46.9675086  34.4821447  71.2590961  46.4874086  34.0069689
  71.6684374  46.9671004  34.4729523  74.9500964  45.8921826  31.2294535
  74.3254034  45.9040218  30.6220488  74.6146558  46.3682001  31.8785776
  74.8086455  45.9640343  31.2351104  75.1342712  44.2346945  17.2867220
  74.7855517  44.8866670  17.7498770  74.6539158  44.2204058  16.5591092
  75.0112956  44.3289998  17.2478312  71.6626639  53.9522286  32.6698300
  71.1326564  53.2614725  32.7193274  71.9351732  53.9432472  31.8411008
  71.6251361  53.8489418  32.5545716  81.8632885  51.3945531  32.6436671
  81.2489878  50.8503581  32.9385307  82.3800170  50.8809767  32.1642487
  81.8488547  51.2381940  32.6160900  81.1029182  52.4649801  30.3780970
  80.6756790  51.8399520  29.9446405  81.0954126  52.1824723  31.2039977
  81.0388323  52.3302582  30.4360798  74.2191709  47.5014974  33.4469404
  74.3785196  46.7458298  33.8521126  74.0384603  48.0505913  34.1010142
  74.2157068  47.4708788  33.6032110  82.1612012  39.6676210  34.0020193
  81.6652573  39.8639884  33.3111760  82.9181074  40.0668878  33.8308995
  82.1998837  39.7553943  33.8740330  79.4314892  43.3418555  30.5923504
  79.4557379  42.8078668  29.9036284  79.6826365  42.8335864  31.2549095
  79.4724810  43.1879459  30.5888149  66.9422481  50.6250050  30.0266648
  66.8365930  50.5796895  29.1618732  66.1922701  50.9703831  30.3080933
  66.8158084  50.6690959  29.9403978  75.7116214  42.0689374  29.9729248
  75.7514585  42.5698580  30.6863956  74.8865878  42.1599767  29.7035171
  75.5955740  42.1571190  30.0379787  77.8945827  51.6350114  38.0749543
  77.0441457  51.7721828  38.2107188  78.0573954  50.9013892  38.5197245
  77.7929690  51.5464215  38.1605142  77.1330577  48.5849883  32.2703147
  76.3022507  48.7523701  32.0638395  77.0782094  48.2085834  33.0552033
  77.0019992  48.5539615  32.3551675  74.9414360  42.0758776  37.9059558
  75.5667064  41.5320909  38.1788990  74.4864840  41.5953694  37.3367348
  74.9662621  41.9248258  37.8621152  75.5066621  46.8605475  22.7993265
  75.6469582  47.3577939  23.5021906  76.0049154  46.1591769  22.9407479
  75.6007702  46.8307454  22.9244844  75.5366843  47.7272586  20.1285842
  76.1711923  48.3233011  20.0635304  75.6192454  47.4276044  20.9431712
  75.6423394  47.7713494  20.2388928  77.1145826  43.6586561  20.1031284
  77.4361667  43.1789644  19.4490546  77.3772770  44.4686208  19.9122095
  77.2011852  43.7076459  19.9786776  80.3442799  54.6805436  33.6230100
  79.8367890  55.2341283  34.0670730  80.0469445  54.7413726  32.8048874
  80.2247684  54.7711747  33.5678557  82.5104981  43.0458755  32.4654763
  82.9360053  42.5931282  31.8538289  81.8961974  42.4918826  32.7419550
  82.4833627  42.8972732  32.4159788  72.0419831  49.9240427  23.3975388
  72.5512061  50.5204934  23.7786693  72.5154104  49.6566400  22.7151807
  72.1863207  49.9726242  23.3529911  80.9499204  39.5173855  25.8745340
  80.3067522  39.3671502  26.4430478  80.6098611  39.2716200  25.1094445
  80.8044281  39.4585978  25.8448355  79.5885284  59.6129994  30.5287107
  79.3650939  58.8548823  30.8971133  79.0995128  59.6428015  29.8067546
  79.4828733  59.5052219  30.4763848  74.4010363  46.5596685  26.2648568
  73.6822352  46.9760818  26.5321432  74.7722725  47.1250924  25.7140206
  74.3502295  46.7045967  26.2231375  81.6456274  53.7811726  38.0799041
  81.6052129  53.1361403  37.4944196  82.4579592  53.7248344  38.3924453
  81.7599427  53.6770693  38.0395990  78.2363741  59.8330452  27.9824191
  77.8224140  59.1704582  27.5928033  78.9211115  59.9808311  27.4619886
  78.2762113  59.7571110  27.8480689  81.6029035  58.9920537  28.7347808
  81.2045319  59.1022808  27.9668628  80.9880255  59.2002604  29.3174368
  81.4527925  59.0394105  28.7079107  80.1756937  45.5994685  21.6021948
  79.5821777  45.9211682  21.0506515  80.2132215  44.7535781  21.3943054
  80.0931326  45.5219014  21.4904719  77.3333982  47.4108663  34.6348798
  76.8212885  46.8029846  34.9933830  77.1613479  48.1265255  35.1022774
  77.2323619  47.4271962  34.7565022  72.1799697  45.8546238  37.2851160
  72.0102287  46.5147613  36.7399367  71.7365647  46.0652799  38.0063649
  72.0899031  45.9832220  37.3112789  76.1059516  44.0950736  26.3277894
  76.5816883  44.4567816  25.6928075  75.6048116  44.7507204  26.6078036
  76.1024875  44.2444925  26.2754635  81.2103053  45.3332907  37.0751054
  81.7674483  45.1046717  36.4429519  80.8864118  46.0938573  36.7986266
  81.2449463  45.4116744  36.9407551  69.0801762  48.7593104  32.5439650
  68.5328481  48.0893749  32.6620518  69.8694140  48.3922952  32.6083117
  69.1153945  48.6058090  32.5708350  78.9286170  48.4200561  38.0403061
  79.6797497  48.7352238  38.3542615  79.1208746  48.2179732  37.2136983
  79.0677584  48.4367943  37.9646457  78.1486170  46.2391936  19.6951278
  78.5285134  46.2571565  18.9102392  77.4078766  46.6845925  19.5742125
  78.0955007  46.3073711  19.5614846  67.8388731  47.9713911  29.6985673
  67.6610492  47.5190520  30.4240588  67.5507753  48.7740073  29.8824150
  67.7701684  48.0236469  29.8329176  78.9470924  53.0769442  21.0860068
  78.1382246  52.7536116  21.0393377  79.4545833  52.3702664  21.0188316
  78.9020590  52.9250758  21.0690362  75.2018211  60.2739534  30.3837537
  75.5164770  61.0875922  30.3915319  75.6111624  59.8889753  31.0519697
  75.3086309  60.3368236  30.4841629  82.1542730  55.6909581  27.9541349
  82.6253909  56.4049843  28.1231335  82.4902909  55.0908331  28.4901219
  82.2737846  55.7081045  28.0573725  79.0712225  40.4637051  34.9099444
  79.2040131  39.6668045  35.2380420  79.4557378  40.9903454  35.4897720
  79.1468554  40.4236968  35.0442947  82.1444581  37.3867377  31.5080537
  81.3390544  37.2765107  31.8248376  82.0151316  37.4879833  30.6510403
  82.0064713  37.3851047  31.4288578  78.1405340  42.4653464  22.3778909
  78.9621035  42.6351777  22.1360604  77.6774991  42.6200725  21.6545207
  78.1936503  42.5135197  22.2350553  76.7300672  40.4596226  33.1577338
  77.2745085  40.1187353  33.7481680  76.7837608  41.3181688  33.2998622
  76.8189792  40.5351486  33.2659211  72.5431231  54.2212642  30.0316146
  73.1476088  54.1808476  29.4029967  72.3358543  55.0683794  30.0620202
  72.6020128  54.3400645  29.9432262  67.7782513  53.2047260  29.9015069
  67.6806791  52.3943531  30.2105126  68.5611383  53.1839053  29.5161337
  67.8798650  53.0814350  29.8901932  81.1879279  68.8020487  26.6226528
  80.9529463  67.9688139  26.5158797  81.3264919  69.0825152  25.8087729
  81.1734941  68.7203990  26.4868883  80.9581424  67.0269851  32.0136349
  80.6919839  66.2108968  32.1727339  80.9719988  67.0723007  31.1431864
  80.9206146  66.9126756  31.9089831  81.3674838  67.8128631  29.2948093
  81.1850411  67.7875517  28.4420385  82.1024507  68.2827569  29.3337002
  81.4488901  67.8789993  29.1746012  81.3345748  64.6922132  29.4447160
  81.9119251  64.5558582  30.0839405  80.6359810  64.2357916  29.6992744
  81.3166769  64.6044398  29.5769449  76.8104581  63.5434024  26.1594978
  76.8964833  63.1665893  26.9408508  77.4380379  63.1694470  25.6814936
  76.9161132  63.4319507  26.2040456  81.5666696  61.2176119  24.2877862
  81.6682833  62.0202281  24.6158838  82.3622583  61.0163455  23.9900943
  81.6994602  61.3062018  24.2913218  82.3830429  61.3323297  32.0298984
  82.2415920  60.4807238  32.1543492  82.6670992  61.3751958  31.2061190
  82.4038275  61.2123047  31.9266608  81.8443751  63.8369330  25.4757256
  82.2242716  64.2553875  24.8117523  81.2699116  64.4182785  25.7826099
  81.8155076  63.9847188  25.4233997  82.9650120  63.0249271  27.9357501
  82.5706817  63.0992283  27.1607611  82.4090237  63.4107218  28.4865863
  82.8252932  63.0931046  27.9025161  82.6359223  69.4707594  32.6698300
  82.1059147  68.7800033  32.7193274  82.9084316  69.4617779  31.8411008
  82.5983945  69.3674726  32.5545716  77.9155065  66.1435358  30.0266648
  77.8098514  66.0982203  29.1618732  77.1655285  66.4889139  30.3080933
  77.7890668  66.1876266  29.9403978  80.0534345  64.2778412  32.5439650
  79.5061065  63.6079057  32.6620518  80.8426723  63.9108259  32.6083117
  80.0886529  64.1243398  32.5708350  78.8121315  63.4899219  29.6985673
  78.6343076  63.0375828  30.4240588  78.5240337  64.2925381  29.8824150
  78.7434268  63.5421777  29.8329176  80.5493785  66.0226943  26.8107432
  79.6839304  66.0112634  26.6990203  80.6492600  65.8357166  27.6578571
  80.4367951  65.9933004  26.9196376  78.7515097  68.7232568  29.9015069
  78.6539375  67.9128839  30.2105126  79.5343967  68.7024361  29.5161337
  78.8531233  68.5999658  29.8901932  53.1882551   3.1504015  11.6651468
  52.4365451   2.7719554  11.4367513  53.6368563   3.1822449  10.9170279
  53.1432218   3.0989623  11.5208971  58.1811802   5.5243654  13.0348127
  58.5651182   6.0930552  12.4952902  58.1170944   4.7993164  12.5553943
  58.2285230   5.5019117  12.8841990  54.6068047   8.0799997  15.3329097
  55.2505502   8.5213161  15.7225255  54.9324303   7.2753423  15.2459356
  54.7499876   8.0265192  15.3774574  49.5249676   4.0628365  14.8322781
  49.0417255   4.7878855  14.8082364  50.3372995   4.3604495  14.9432938
  49.5740424   4.2130719  14.8450060  52.3793874   4.5784541  14.9843060
  53.0814453   4.0636530  15.0415817  52.2991357   4.9058692  15.7889936
  52.4717634   4.5498767  15.1115853  59.5217875   4.6474481  19.7099007
  58.7233121   4.4073981  19.9672876  59.9703887   4.6988874  20.4566055
  59.4692486   4.6196872  19.8583932  49.1733613   2.6947965  17.1466386
  49.2137758   2.9662816  16.3186165  49.7328137   3.2189873  17.5624174
  49.2616959   2.8123720  17.0858274  50.6248199   1.2789914  11.9720312
  49.7986317   1.5251651  11.8454590  50.6860190   1.2001995  12.8382370
  50.5122366   1.3034863  12.0809256  55.4047028   3.8966794   9.6739342
  55.6945327   3.5055775   8.9498568  56.1350509   4.0783499  10.1144617
  55.5553912   3.8660608   9.6322149  53.3452944   5.8734177  12.7399491
  53.1253239   5.5831531  13.5326158  53.1247466   5.2149132  12.2117404
  53.2800538   5.7333885  12.7788400  55.5120900   7.2463566  11.5230184
  56.1644958   6.7140009  11.7521210  54.8146508   6.8932219  11.9098058
  55.5051618   7.1153089  11.6142351  54.3446876   4.4772085  19.3867529
  54.4936440   3.9175001  18.7340933  55.1246879   4.5564087  19.7700048
  54.4820970   4.4057651  19.3464478  56.8700177   4.6486728  20.6652020
  56.7943848   3.9795539  21.2202808  56.7990036   5.3504516  21.1792686
  56.8480784   4.6531636  20.8228868  56.2591811   8.0555048  19.1230021
  56.7487742   7.3565837  18.9405685  55.6876044   7.7578918  19.7106078
  56.2476341   7.9081272  19.1831061  57.3370941   5.5137509  17.4627154
  57.1136595   4.7556339  17.8311180  56.8480784   5.5435531  16.7407593
  57.2314390   5.4059734  17.4103895  55.9849398   5.7337967  14.9164238
  55.5709797   5.0712098  14.5268080  56.6696772   5.8815826  14.3959932
  56.0247770   5.6578626  14.7820735  59.3514692   4.8928053  15.6687855
  58.9530975   5.0030323  14.9008675  58.7365912   5.1010119  16.2514415
  59.2013581   4.9401621  15.6419154  52.9503868   6.1747049  17.3177584
  53.2650427   6.9883438  17.3255366  53.3597281   5.7897268  17.9859743
  53.0571966   6.2375752  17.4181676  64.1615135  18.6689323  11.6651468
  63.4098034  18.2904862  11.4367513  64.6101146  18.7007757  10.9170279
  64.1164802  18.6174931  11.5208971  73.0867712  15.4013131  25.5074693
  73.7934479  14.9065162  25.6361627  73.2755647  15.8422213  24.7777351
  73.2195617  15.3931481  25.4183738  69.1544386  21.0428962  13.0348127
  69.5383765  21.6115860  12.4952902  69.0903527  20.3178472  12.5553943
  69.2017813  21.0204425  12.8841990  72.6225816  11.1918649  18.5445888
  73.1681776  11.8703736  18.6039858  72.5642692  11.0506110  17.6847470
  72.6941730  11.2710651  18.4257949  65.7399891  18.6807716  13.9314241
  65.8410254  17.8708069  14.2411369  65.1441636  18.5864662  13.3013919
  65.6672430  18.5472744  13.8840479  65.5800631  23.5985305  15.3329097
  66.2238086  24.0398469  15.7225255  65.9056886  22.7938731  15.2459356
  65.7232459  23.5450499  15.3774574  58.9364935  14.7028002  13.5566575
  58.7015120  13.8695654  13.4498843  59.0750576  14.9832668  12.7427775
  58.9220598  14.6211506  13.4208930  61.2355023   6.8713733  16.4550882
  60.6160054   6.2806380  16.2860897  61.1338886   7.4625168  15.8215205
  61.1292698   6.8717815  16.3355872  66.2821210  16.6097280  10.7048959
  66.6037051  17.1502487  10.1010267  66.9293307  16.0394051  10.8371248
  66.4247265  16.6056455  10.6355994  60.9624156  10.4166014  18.6994451
  60.8382853  11.0028460  19.3344270  61.6142440   9.9226210  19.0006726
  61.0397805  10.4304819  18.8380380  65.9882497  13.5927731  17.9781962
  66.6331499  13.1000174  17.6592911  66.2284274  13.7352518  18.8048041
  66.1193082  13.5405174  18.0531496  68.5268588  16.4382637  17.6288855
  68.8091831  15.6434043  17.4075611  69.2554749  16.9163225  17.6493916
  68.6758152  16.3917234  17.5991870  60.4982260  19.5813673  14.8322781
  60.0149838  20.3064163  14.8082364  61.3105578  19.8789803  14.9432938
  60.5473008  19.7316027  14.8450060  66.5696414  18.3745854  17.4372595
  66.0523356  18.0153269  16.8333903  67.2670805  17.8508028  17.4478661
  66.5961995  18.2443542  17.3502854  70.2260006  18.8240668  23.3988768
  70.3143352  18.6366808  24.2466979  70.6549719  18.1778097  22.9993615
  70.3022108  18.7003675  23.4660520  67.7930466  18.1071828  22.3806430
  67.2301301  17.6944437  22.9046092  68.5551489  18.0324733  22.7999574
  67.8224914  18.0349228  22.5199431  63.3526457  20.0969849  14.9843060
  64.0547037  19.5821838  15.0415817  63.2723940  20.4244000  15.7889936
  63.4450218  20.0684075  15.1115853  64.4005364  10.3345436  24.1123476
  64.5725867  10.2251330  24.9608757  64.9374721  10.9799841  23.8754668
  64.5050368  10.4137437  24.2028572  62.6777233  16.2876201  14.4928669
  63.5166132  16.5199134  14.5402430  62.7089002  15.4180512  14.4235704
  62.8058950  16.1933147  14.4893313  63.3029936  16.7077076  18.7941974
  63.8428161  16.5648207  19.4645346  62.6199882  17.1073827  19.1626000
  63.2822090  16.7456747  18.9476396  70.3380065  18.2549687  26.0632552
  71.1220482  18.3680534  26.4288294  70.1376660  17.4290824  26.2591238
  70.4246091  18.1496406  26.1466938  58.7067081  12.9277367  18.9476396
  58.4405496  12.1116483  19.1067386  58.7205645  12.9730522  18.0771911
  58.6691803  12.8134272  18.8429878  63.4565687   6.4655745  21.5943403
  62.7637484   5.9952725  21.8404135  64.0726014   6.2394050  22.1685110
  63.4450217   6.3622877  21.7152556  70.4950459  20.1659789  19.7099007
  69.6965704  19.9259289  19.9672876  70.9436470  20.2174182  20.4566055
  70.4425070  20.1382180  19.8583932  59.1160494  13.7136146  16.2288140
  58.9336068  13.6883032  15.3760432  59.8510163  14.1835084  16.2677049
  59.1974558  13.7797508  16.1086058  62.1806246  10.4321149  22.7370249
  62.9046218  10.4174180  23.2235143  62.2822383  11.1416504  22.2392217
  62.3024455  10.5345852  22.7349035  69.5551195  13.9120234  27.6019196
  68.7624176  14.2263746  27.7871815  69.6700123  14.1271702  26.7639980
  69.4546606  13.9904070  27.5057530  70.4834988  13.8140437  22.5404492
  71.0573850  13.1767682  22.6953056  70.4049792  13.8144520  21.6714150
  70.5568223  13.7205549  22.4350903  59.0831405  10.5929647  16.3787206
  59.6604907  10.4566098  17.0179452  58.3845466  10.1365431  16.6332791
  59.0652426  10.5051913  16.5109496  65.8398707  12.2463703  14.5925690
  65.5817951  11.4135437  14.5656989  65.8947190  12.4721316  13.7518190
  65.8098485  12.1561474  14.4645826  64.8133419   9.8001465  15.0790584
  64.2383010   9.9593633  15.7154545  64.4369095   9.1636874  14.6159035
  64.6736231   9.7299278  15.1045143  68.4806708   8.2724814  19.9382963
  68.0921140   7.8479032  19.2835154  67.8161406   8.5206964  20.4459989
  68.3253635   8.2463535  19.9170831  54.5590238   9.4441540  13.0935025
  54.6450490   9.0673408  13.8748555  55.1866035   9.0701985  12.6154983
  54.6646789   9.3327022  13.1380502  75.8055136  15.1849415  22.5489345
  75.5693773  14.3537480  22.4301406  76.4498365  15.1335022  23.1344190
  75.8649807  15.0547103  22.6175239  65.4553554  15.9744936  13.2632082
  66.0927501  15.7356684  13.8083875  65.8808626  16.1782095  12.5285242
  65.6129720  15.9695947  13.2349239  60.1466197  18.2133273  17.1466386
  60.1870342  18.4848124  16.3186165  60.7060721  18.7375181  17.5624174
  60.2349543  18.3309028  17.0858274  76.8291557  14.9693864  18.6117640
  76.5237374  15.7021921  18.9730956  76.1097772  14.5631793  18.3310426
  76.6778899  15.0175597  18.6230777  67.8375026  16.4517359  14.9425868
  67.9114034  16.2892531  15.7967718  68.6544532  16.6407549  14.6986350
  67.9691385  16.4554101  15.0323894  61.5980783  16.7975222  11.9720312
  60.7718901  17.0436959  11.8454590  61.6592774  16.7187303  12.8382370
  61.4854950  16.8220171  12.0809256  66.3779612  19.4152102   9.6739342
  66.6677910  19.0241083   8.9498568  67.1083093  19.5968807  10.1144617
  66.5286496  19.3845916   9.6322149  66.9674357  14.2169848  20.7592472
  66.4686051  14.9285616  20.8377360  67.7774581  14.5370515  20.7210634
  67.0130464  14.3696697  20.7649041  64.3185527  21.3919484  12.7399491
  64.0985823  21.1016839  13.5326158  64.0980049  20.7334439  12.2117404
  64.2533122  21.2519193  12.7788400  63.2302475  13.4792801  15.0055193
  62.9415723  12.8530272  15.5400920  64.0985823  13.4213088  15.0719873
  63.3162727  13.3780345  15.0946148  66.4853483  22.7648874  11.5230184
  67.1377541  22.2325317  11.7521210  65.7879092  22.4117527  11.9098058
  66.4784201  22.6338397  11.6142351  63.4334748  15.1188052  10.9297558
  64.1880716  15.5001091  11.1433021  62.8405361  15.5699196  11.3844255
  63.4571462  15.2416879  11.0280436  65.8941415   7.0750892  26.0554770
  65.0841191   7.3808672  25.9444613  66.3716102   7.7956475  26.1707354
  65.8444894   7.2265494  26.0561841  64.7532975  16.2896613  16.3037673
  64.2313728  16.4296905  16.9889538  65.1406995  15.5307278  16.4939791
  64.7336676  16.1982137  16.4338750  62.2285447  12.6113443  20.9254173
  62.7406544  12.8897696  20.2762932  61.9421790  13.3502737  21.2916986
  62.2620310  12.7615796  20.8844051  59.3152353   7.1183635  11.2217909
  59.4168490   7.9209796  11.5498885  60.1108240   6.9170970  10.9240990
  59.4480259   7.2069533  11.2253265  60.1316085   7.2330813  18.9639031
  59.9901577   6.3814753  19.0883539  60.4156649   7.2759473  18.1401237
  60.1523931   7.1130563  18.8606655  74.1802727  15.7781262  16.8970300
  74.0417086  16.4762308  17.4019043  73.4002724  15.6229919  16.5406482
  74.0445953  15.8581429  16.9196574  72.5180812  12.0777638  23.1492682
  72.5128850  11.2057454  23.1535108  73.2241806  12.2765807  22.6762138
  72.6225816  11.9781512  23.0799717  66.2451705  11.8054622  22.5206502
  66.3895081  12.3855830  21.8849612  66.5927354  12.1830918  23.2256357
  66.3179166  11.9475326  22.5305497  68.4171622  11.0044790  20.3031634
  67.6694936  11.1975804  19.8979912  68.5713148  10.1790009  20.0655755
  68.3294050  10.9109901  20.2077040  65.3179460  19.9957393  19.3867529
  65.4669024  19.4360309  18.7340933  66.0979462  20.0749395  19.7700048
  65.4553554  19.9242959  19.3464478  67.8432761  20.1672036  20.6652020
  67.7676432  19.4980847  21.2202808  67.7722620  20.8689824  21.1792686
  67.8213368  20.1716944  20.8228868  60.9006391   5.1461160  22.2816481
  60.3648580   4.5341519  22.5977248  60.9624155   5.7209296  22.9350148
  60.8302023   5.1408088  22.4251908  68.5003008  18.6873035  11.4975626
  69.2652899  18.4182679  11.1758290  68.3981098  18.2023045  12.2145688
  68.5984503  18.5762600  11.5555453  71.9199464  14.5239875  15.7628307
  71.2444465  14.2925107  16.2641694  71.9291840  13.9161058  15.1370412
  71.8217968  14.3998800  15.7444460  69.0493608   9.3657704  22.5192360
  68.9852749  10.2267660  22.3912497  69.1890795   9.0489697  21.7187912
  69.0609078   9.4457870  22.3820573  67.7312702  12.0589843  16.6608563
  67.3074951  12.2594342  15.9247582  67.5557557  11.2118691  16.7732863
  67.6423582  11.9638624  16.5682253  67.2324395  23.5740356  19.1230021
  67.7220325  22.8751145  18.9405685  66.6608627  23.2764226  19.7106078
  67.2208925  23.4266580  19.1831061  63.0195146  12.5541894  12.0936536
  63.1759766  12.4888697  12.9492528  63.3595740  13.3290447  11.8815215
  63.0928381  12.6591093  12.1891130  73.4291398  16.1402425  28.0756811
  74.2426264  15.8687574  28.2361944  73.2686365  15.8409965  27.2717007
  73.5261347  16.0557351  27.9802217  72.1168228  19.7454831  12.4606420
  71.7248020  19.4421546  11.7429286  72.2721301  20.5823921  12.2711374
  72.0821818  19.8238668  12.3262917  59.5929408   9.7376845  12.4097303
  59.9728373  10.1561390  11.7457570  59.0184773  10.3190301  12.7166146
  59.5640733   9.8854704  12.3574044  69.9656156   9.8385219  26.7364209
  70.4355787  10.4627336  27.1232083  70.0118036   9.1702195  27.2957424
  70.0424032   9.8319899  26.8764280  73.4412642  17.2008716  23.3479652
  74.0792363  16.7068911  23.0142108  72.7986734  17.1286116  22.7631879
  73.4406869  17.1167724  23.2122007  73.4966899  17.8928524  19.9885009
  74.2859277  17.5417589  20.1087090  73.6710497  18.7064912  19.7261642
  73.6387181  17.9614381  19.9672876  63.2360210  11.3037250  17.0412797
  62.3948216  11.2041124  17.2491691  63.4450217  12.0732730  17.3927118
  63.1424902  11.4029293  17.1240112  60.7135776   8.9256787  14.8697548
  60.3192474   8.9999798  14.0947658  60.1575893   9.3114733  15.4205910
  60.5738589   8.9938561  14.8365208  67.0476874   9.2318649  16.2910395
  66.7440012   8.6774637  16.8920803  66.3456295   9.4110859  15.8038429
  66.8993084   9.1763431  16.3080101  65.1095225  16.4468370  20.9982493
  65.0015580  16.4570432  21.8644551  65.3191007  17.2723150  20.8087446
  65.1245336  16.5709444  21.0986584  63.1269017  13.6981012  18.4604430
  62.5356951  14.3390510  18.4307445  63.8890041  14.1218629  18.4335730
  63.1517278  13.8556850  18.4519577  72.8858534  19.1490324  15.8936455
  72.6878222  19.6381138  15.1992666  72.2646245  19.3531565  16.4720588
  72.7646098  19.2506862  15.8759678  60.3117418   8.4872200  21.5024164
  61.1743031   8.3867910  21.4161494  59.9809201   7.9066910  20.9409736
  60.3902614   8.3863827  21.4069570  74.8032336  12.7154476  21.4281703
  75.5266534  12.2627002  21.2492723  74.5382298  12.9959142  20.6454031
  74.8713609  12.6905444  21.2860418  63.6719204   7.3114649  18.1634582
  63.0472274   7.3233041  17.5560535  63.3364799   7.7874825  18.8125822
  63.5304696   7.3833166  18.1691151  60.3844879  15.3715110  19.6038347
  59.8544804  14.6807548  19.6533321  60.6569973  15.3625295  18.7751055
  60.3469602  15.2682241  19.4885762  70.5851125  12.8138354  19.5776718
  69.9708118  12.2696404  19.8725353  71.1018410  12.3002591  19.0982534
  70.5706787  12.6574763  19.5500947  69.8247422  13.8842624  17.3121017
  69.3975030  13.2592343  16.8786452  69.8172367  13.6017546  18.1380024
  69.7606563  13.7495405  17.3700844  62.9409949   8.9207797  20.3809451
  63.1003436   8.1651121  20.7861173  62.7602843   9.4698737  21.0350188
  62.9375308   8.8901611  20.5372157  55.6640722  12.0442874  16.9606695
  55.5584171  11.9989718  16.0958779  54.9140942  12.3896654  17.2420980
  55.5376325  12.0883782  16.8744025  66.6164067  13.0542937  25.0089590
  65.7659698  13.1914651  25.1447235  66.7792195  12.3206715  25.4537291
  66.5147931  12.9657038  25.0945189  65.8548818  10.0042707  19.2043194
  65.0240747  10.1716525  18.9978442  65.8000335   9.6278658  19.9892079
  65.7238232   9.9732438  19.2891722  69.0661039  16.0998259  20.5570147
  68.5586130  16.6534106  21.0010777  68.7687686  16.1606549  19.7388921
  68.9465924  16.1904570  20.5018603  60.7638072  11.3433250  10.3315435
  61.2730301  11.9397758  10.7126740  61.2372344  11.0759224   9.6491854
  60.9081447  11.3919066  10.2869957  68.3103525  21.0322817  17.4627154
  68.0869179  20.2741647  17.8311180  67.8213368  21.0620839  16.7407593
  68.2046974  20.9245042  17.4103895  63.1228603   7.9789509  13.1988615
  62.4040592   8.3953641  13.4661479  63.4940966   8.5443747  12.6480253
  63.0720535   8.1238790  13.1571422  70.3674514  15.2004550  25.0139087
  70.3270369  14.5554226  24.4284243  71.1797832  15.1441167  25.3264499
  70.4817668  15.0963516  24.9736036  66.9581982  21.2523275  14.9164238
  66.5442380  20.5897406  14.5268080  67.6429356  21.4001134  14.3959932
  66.9980353  21.1763934  14.7820735  70.3247276  20.4113361  15.6687855
  69.9263559  20.5215631  14.9008675  69.7098495  20.6195427  16.2514415
  70.1746165  20.4586929  15.6419154  66.0552223   8.8301486  21.5688845
  65.5431126   8.2222669  21.9273876  65.8831719   9.5458079  22.0362821
  65.9541860   8.8464785  21.6905069  60.9017937   7.2739061  24.2191207
  60.7320528   7.9340436  23.6739413  60.4583887   7.4845623  24.9403696
  60.8117271   7.4025044  24.2452836  57.8020002  10.1785927  19.4779697
  57.2546721   9.5086573  19.5960565  58.5912380   9.8115775  19.5423164
  57.8372186  10.0250913  19.5048397  67.6504410   9.8393384  24.9743108
  68.4015737  10.1545061  25.2882662  67.8426987   9.6372555  24.1477029
  67.7895824   9.8560766  24.8986503  56.5606971   9.3906735  16.6325720
  56.3828733   8.9383344  17.3580635  56.2725994  10.1932896  16.8164197
  56.4919925   9.4429293  16.7669223  58.2979441  11.9234458  13.7447479
  57.4324961  11.9120149  13.6330250  58.3978257  11.7364681  14.5918618
  58.1853608  11.8940520  13.8536423  74.2882371  13.3968140  18.5580239
  74.7137443  12.8742561  18.0050664  73.9239291  13.9948977  18.0368862
  74.2968974  13.4078367  18.3989248  63.9236451  21.6932357  17.3177584
  64.2383010  22.5068746  17.3255366  64.3329865  21.3082576  17.9859743
  64.0304549  21.7561059  17.4181676  70.8760971  17.1102404  14.8881396
  71.3472149  17.8242666  15.0571381  71.2121149  16.5101154  15.4241266
  70.9956086  17.1273868  14.9913772  72.9637955  18.7203717  27.0673468
  73.0734921  17.9312278  27.4230215  73.2928852  18.6309653  26.2647806
  73.0290361  18.5909570  27.0015859  71.5134917  16.9020338  21.6509089
  70.9655863  16.2778222  21.3829154  71.9747946  17.0914610  20.9353168
  71.5002127  16.8379388  21.5059520  61.2649471  15.6405466  16.9656193
  61.8694329  15.6001300  16.3370013  61.0576784  16.4876618  16.9960248
  61.3238369  15.7593468  16.8772309  71.0793243  17.9071411  18.1818430
  71.8991617  17.7634377  18.4434725  70.7987321  18.5317610  18.7234868
  71.1589987  17.9781763  18.3006369  56.5000754  14.6240083  16.8355116
  56.4025032  13.8136355  17.1445172  57.2829623  14.6031876  16.4501384
  56.6016890  14.5007173  16.8241979  75.1347718  34.1874631  11.6651468
  74.3830618  33.8090170  11.4367513  75.5833730  34.2193065  10.9170279
  75.0897385  34.1360238  11.5208971  80.1276970  36.5614269  13.0348127
  80.5116349  37.1301168  12.4952902  80.0636111  35.8363780  12.5553943
  80.1750397  36.5389733  12.8841990  76.7132475  34.1993023  13.9314241
  76.8142837  33.3893377  14.2411369  76.1174220  34.1049970  13.3013919
  76.6405013  34.0658052  13.8840479  76.5533214  39.1170613  15.3329097
  77.1970670  39.5583777  15.7225255  76.8789470  38.3124039  15.2459356
  76.6965043  39.0635807  15.3774574  69.9097519  30.2213310  13.5566575
  69.6747703  29.3880962  13.4498843  70.0483160  30.5017976  12.7427775
  69.8953181  30.1396813  13.4208930  72.2087606  22.3899041  16.4550882
  71.5892638  21.7991688  16.2860897  72.1071470  22.9810476  15.8215205
  72.1025282  22.3903123  16.3355872  77.2553794  32.1282587  10.7048959
  77.5769635  32.6687795  10.1010267  77.9025890  31.5579359  10.8371248
  77.3979849  32.1241763  10.6355994  71.9356739  25.9351322  18.6994451
  71.8115436  26.5213768  19.3344270  72.5875024  25.4411518  19.0006726
  72.0130389  25.9490127  18.8380380  76.9615080  29.1113039  17.9781962
  77.6064083  28.6185482  17.6592911  77.2016857  29.2537826  18.8048041
  77.0925665  29.0590481  18.0531496  79.5001172  31.9567945  17.6288855
  79.7824415  31.1619351  17.4075611  80.2287332  32.4348533  17.6493916
  79.6490735  31.9102542  17.5991870  71.4714844  35.0998981  14.8322781
  70.9882422  35.8249470  14.8082364  72.2838162  35.3975111  14.9432938
  71.5205591  35.2501335  14.8450060  77.5428998  33.8931162  17.4372595
  77.0255939  33.5338577  16.8333903  78.2403389  33.3693336  17.4478661
  77.5694579  33.7628849  17.3502854  81.1992590  34.3425976  23.3988768
  81.2875935  34.1552116  24.2466979  81.6282302  33.6963405  22.9993615
  81.2754692  34.2188983  23.4660520  78.7663049  33.6257136  22.3806430
  78.2033884  33.2129745  22.9046092  79.5284073  33.5510041  22.7999574
  78.7957498  33.5534536  22.5199431  74.3259041  35.6155157  14.9843060
  75.0279620  35.1007146  15.0415817  74.2456524  35.9429308  15.7889936
  74.4182801  35.5869383  15.1115853  75.3737947  25.8530744  24.1123476
  75.5458451  25.7436638  24.9608757  75.9107305  26.4985149  23.8754668
  75.4782951  25.9322745  24.2028572  73.6509816  31.8061509  14.4928669
  74.4898716  32.0384441  14.5402430  73.6821585  30.9365820  14.4235704
  73.7791534  31.7118455  14.4893313  74.2762519  32.2262384  18.7941974
  74.8160744  32.0833515  19.4645346  73.5932466  32.6259135  19.1626000
  74.2554673  32.2642055  18.9476396  81.3112649  33.7734995  26.0632552
  82.0953065  33.8865842  26.4288294  81.1109243  32.9476132  26.2591238
  81.3978674  33.6681714  26.1466938  69.6799664  28.4462675  18.9476396
  69.4138080  27.6301791  19.1067386  69.6938228  28.4915830  18.0771911
  69.6424387  28.3319579  18.8429878  74.4298271  21.9841053  21.5943403
  73.7370067  21.5138033  21.8404135  75.0458598  21.7579358  22.1685110
  74.4182801  21.8808185  21.7152556  81.4683042  35.6845097  19.7099007
  80.6698288  35.4444597  19.9672876  81.9169054  35.7359490  20.4566055
  81.4157653  35.6567488  19.8583932  70.0893078  29.2321454  16.2288140
  69.9068651  29.2068340  15.3760432  70.8242747  29.7020392  16.2677049
  70.1707142  29.2982816  16.1086058  73.1538830  25.9506457  22.7370249
  73.8778802  25.9359488  23.2235143  73.2554966  26.6601812  22.2392217
  73.2757039  26.0531160  22.7349035  80.5283779  29.4305542  27.6019196
  79.7356760  29.7449053  27.7871815  80.6432706  29.6457010  26.7639980
  80.4279190  29.5089378  27.5057530  81.4567572  29.3325745  22.5404492
  82.0306434  28.6952990  22.6953056  81.3782376  29.3329828  21.6714150
  81.5300807  29.2390857  22.4350903  70.0563988  26.1114955  16.3787206
  70.6337491  25.9751406  17.0179452  69.3578050  25.6550739  16.6332791
  70.0385010  26.0237221  16.5109496  76.8131290  27.7649010  14.5925690
  76.5550535  26.9320745  14.5656989  76.8679773  27.9906623  13.7518190
  76.7831068  27.6746782  14.4645826  75.7866003  25.3186773  15.0790584
  75.2115594  25.4778941  15.7154545  75.4101679  24.6822182  14.6159035
  75.6468815  25.2484586  15.1045143  79.4539291  23.7910122  19.9382963
  79.0653724  23.3664340  19.2835154  78.7893990  24.0392272  20.4459989
  79.2986219  23.7648843  19.9170831  65.5322821  24.9626848  13.0935025
  65.6183073  24.5858716  13.8748555  66.1598619  24.5887293  12.6154983
  65.6379372  24.8512330  13.1380502  76.4286138  31.4930244  13.2632082
  77.0660085  31.2541992  13.8083875  76.8541209  31.6967403  12.5285242
  76.5862304  31.4881254  13.2349239  71.1198780  33.7318581  17.1466386
  71.1602925  34.0033432  16.3186165  71.6793304  34.2560489  17.5624174
  71.2082126  33.8494336  17.0858274  77.2357493  19.9938949  27.3169556
  76.9210934  20.7638512  27.0539118  76.9147426  19.4309205  26.7321782
  77.1416412  20.0249218  27.1910905  78.8107610  31.9702667  14.9425868
  78.8846618  31.8077839  15.7967718  79.6277116  32.1592856  14.6986350
  78.9423968  31.9739409  15.0323894  72.5713366  32.3160530  11.9720312
  71.7451484  32.5622267  11.8454590  72.6325358  32.2372611  12.8382370
  72.4587533  32.3405479  12.0809256  77.3512195  34.9337410   9.6739342
  77.6410494  34.5426391   8.9498568  78.0815676  35.1154115  10.1144617
  77.5019080  34.9031224   9.6322149  77.9406941  29.7355156  20.7592472
  77.4418634  30.4470924  20.8377360  78.7507165  30.0555822  20.7210634
  77.9863047  29.8882004  20.7649041  75.2918111  36.9104792  12.7399491
  75.0718406  36.6202147  13.5326158  75.0712633  36.2519747  12.2117404
  75.2265705  36.7704501  12.7788400  74.2035058  28.9978109  15.0055193
  73.9148307  28.3715580  15.5400920  75.0718406  28.9398396  15.0719873
  74.2895310  28.8965653  15.0946148  77.4586067  38.2834182  11.5230184
  78.1110125  37.7510625  11.7521210  76.7611675  37.9302835  11.9098058
  77.4516785  38.1523705  11.6142351  74.4067332  30.6373360  10.9297558
  75.1613300  31.0186399  11.1433021  73.8137944  31.0884504  11.3844255
  74.4304045  30.7602187  11.0280436  76.8673999  22.5936200  26.0554770
  76.0573774  22.8993980  25.9444613  77.3448685  23.3141783  26.1707354
  76.8177477  22.7450801  26.0561841  75.7265558  31.8081921  16.3037673
  75.2046312  31.9482213  16.9889538  76.1139579  31.0492586  16.4939791
  75.7069259  31.7167445  16.4338750  73.2018031  28.1298751  20.9254173
  73.7139127  28.4083004  20.2762932  72.9154373  28.8688045  21.2916986
  73.2352894  28.2801104  20.8844051  70.2884937  22.6368942  11.2217909
  70.3901073  23.4395104  11.5498885  71.0840824  22.4356278  10.9240990
  70.4212842  22.7254841  11.2253265  76.7201756  20.2225139  20.9855214
  76.5284953  20.2380274  21.8354638  77.5700352  20.4188813  20.9621869
  76.8177478  20.2539490  21.1078509  71.1048669  22.7516121  18.9639031
  70.9634161  21.9000061  19.0883539  71.3889232  22.7944781  18.1401237
  71.1256515  22.6315871  18.8606655  77.2184289  27.3239929  22.5206502
  77.3627664  27.9041138  21.8849612  77.5659937  27.7016226  23.2256357
  77.2911750  27.4660634  22.5305497  79.3904206  26.5230098  20.3031634
  78.6427520  26.7161112  19.8979912  79.5445731  25.6975317  20.0655755
  79.3026634  26.4295209  20.2077040  76.2912044  35.5142701  19.3867529
  76.4401607  34.9545617  18.7340933  77.0712046  35.5934703  19.7700048
  76.4286137  35.4428267  19.3464478  78.8165344  35.6857344  20.6652020
  78.7409015  35.0166155  21.2202808  78.7455203  36.3875132  21.1792686
  78.7945951  35.6902252  20.8228868  79.6305983  20.4180649  21.1927037
  80.0878597  21.1504623  21.3199830  79.7062312  19.9947114  21.9514293
  79.7096953  20.4637887  21.3228114  71.8738974  20.6646468  22.2816481
  71.3381164  20.0526826  22.5977248  71.9356739  21.2394604  22.9350148
  71.8034607  20.6593396  22.4251908  79.4735591  34.2058343  11.4975626
  80.2385482  33.9367987  11.1758290  79.3713681  33.7208353  12.2145688
  79.5717087  34.0947908  11.5555453  77.5088361  22.4082752  18.0368861
  76.7184436  22.2274213  18.3586197  77.9048984  21.6309705  18.0199156
  77.4505237  22.2670213  18.0821410  82.8932047  30.0425183  15.7628307
  82.2177049  29.8110415  16.2641694  82.9024423  29.4346366  15.1370412
  82.7950552  29.9184108  15.7444460  80.0226191  24.8843012  22.5192360
  79.9585332  25.7452968  22.3912497  80.1623379  24.5675005  21.7187912
  80.0341661  24.9643178  22.3820573  78.7045285  27.5775151  16.6608563
  78.2807534  27.7779650  15.9247582  78.5290140  26.7303999  16.7732863
  78.6156166  27.4823932  16.5682253  78.2056979  39.0925664  19.1230021
  78.6952909  38.3936453  18.9405685  77.6341211  38.7949534  19.7106078
  78.1941508  38.9451888  19.1831061  73.9927730  28.0727202  12.0936536
  74.1492349  28.0074005  12.9492528  74.3328323  28.8475755  11.8815215
  74.0660965  28.1776401  12.1891130  81.6796144  22.3421390  21.0152199
  81.8938114  21.7032305  20.4615553  81.0630043  22.7867214  20.5860061
  81.6201473  22.3131534  20.8702631  70.5661992  25.2562153  12.4097303
  70.9460956  25.6746698  11.7457570  69.9917356  25.8375609  12.7166146
  70.5373316  25.4040012  12.3574044  80.9388740  25.3570527  26.7364209
  81.4088371  25.9812643  27.1232083  80.9850620  24.6887503  27.2957424
  81.0156615  25.3505207  26.8764280  79.8309388  14.8887500  21.5816125
  80.4602506  15.4247800  21.3037195  79.9995251  14.7964859  22.4329691
  79.9487183  14.9548862  21.6664653  79.6323303  19.6758695  23.8542537
  80.4596733  19.4043844  23.9101151  79.6531149  20.4719536  24.2106355
  79.7576153  19.7538449  23.9157720  74.2092793  26.8222558  17.0412797
  73.3680800  26.7226432  17.2491691  74.4182801  27.5918038  17.3927118
  74.1157486  26.9214601  17.1240112  71.6868360  24.4442095  14.8697548
  71.2925058  24.5185106  14.0947658  71.1308477  24.8300041  15.4205910
  71.5471172  24.5123869  14.8365208  78.0209458  24.7503957  16.2910395
  77.7172595  24.1959945  16.8920803  77.3188879  24.9296167  15.8038429
  77.8725668  24.6948739  16.3080101  76.0827809  31.9653677  20.9982493
  75.9748164  31.9755740  21.8644551  76.2923590  32.7908458  20.8087446
  76.0977920  32.0894752  21.0986584  74.1001601  29.2166320  18.4604430
  73.5089534  29.8575818  18.4307445  74.8622624  29.6403937  18.4335730
  74.1249862  29.3742158  18.4519577  74.4962224  20.3768318  19.1272448
  74.9563705  20.4507247  19.8647572  74.5418330  21.1749572  18.7772269
  74.5712779  20.5062465  19.1845204  76.1445573  21.0435013  23.6944475
  75.7531139  20.3968360  24.1300253  76.3131436  21.6346448  24.3138730
  76.1116484  21.0349280  23.8507181  71.2850002  24.0057508  21.5024164
  72.1475615  23.9053218  21.4161494  70.9541785  23.4252218  20.9409736
  71.3635198  23.9049135  21.4069570  74.6451788  22.8299957  18.1634582
  74.0204858  22.8418349  17.5560535  74.3097382  23.3060132  18.8125822
  74.5037279  22.9018474  18.1691151  71.3577463  30.8900417  19.6038347
  70.8277388  30.1992856  19.6533321  71.6302556  30.8810603  18.7751055
  71.3202185  30.7867549  19.4885762  81.5583709  28.3323662  19.5776718
  80.9440702  27.7881712  19.8725353  82.0750994  27.8187899  19.0982534
  81.5439371  28.1760071  19.5500947  80.7980006  29.4027932  17.3121017
  80.3707614  28.7777651  16.8786452  80.7904950  29.1202854  18.1380024
  80.7339147  29.2680713  17.3700844  73.9142533  24.4393105  20.3809451
  74.0736020  23.6836429  20.7861173  73.7335426  24.9884045  21.0350188
  73.9107892  24.4086919  20.5372157  66.6373305  27.5628182  16.9606695
  66.5316754  27.5175026  16.0958779  65.8873525  27.9081962  17.2420980
  66.5108908  27.6069090  16.8744025  75.4067038  19.0067505  16.9069295
  75.4465409  19.5076711  17.6204002  74.5816702  19.0977899  16.6375218
  75.2906564  19.0949321  16.9719833  77.5896651  28.5728245  25.0089590
  76.7392281  28.7099959  25.1447235  77.7524778  27.8392023  25.4537291
  77.4880514  28.4842346  25.0945189  76.8281401  25.5228015  19.2043194
  75.9973331  25.6901833  18.9978442  76.7732918  25.1463965  19.9892079
  76.6970816  25.4917746  19.2891722  74.6365184  19.0136908  24.8399605
  75.2617888  18.4699040  25.1129037  74.1815664  18.5331825  24.2707395
  74.6613445  18.8626389  24.7961199  80.0393623  31.6183567  20.5570147
  79.5318714  32.1719414  21.0010777  79.7420269  31.6791857  19.7388921
  79.9198508  31.7089878  20.5018603  71.7370655  26.8618558  10.3315435
  72.2462885  27.4583066  10.7126740  72.2104927  26.5944532   9.6491854
  71.8814031  26.9104373  10.2869957  79.2836108  36.5508125  17.4627154
  79.0601763  35.7926955  17.8311180  78.7945951  36.5806146  16.7407593
  79.1779557  36.4430350  17.4103895  74.0961187  23.4974817  13.1988615
  73.3773176  23.9138949  13.4661479  74.4673549  24.0629055  12.6480253
  74.0453119  23.6424098  13.1571422  81.3407098  30.7189857  25.0139087
  81.3002952  30.0739534  24.4284243  82.1530416  30.6626475  25.3264499
  81.4550251  30.6148824  24.9736036  77.9314565  36.7708583  14.9164238
  77.5174964  36.1082714  14.5268080  78.6161939  36.9186442  14.3959932
  77.9712937  36.6949242  14.7820735  81.2979859  35.9298669  15.6687855
  80.8996142  36.0400939  14.9008675  80.6831079  36.1380735  16.2514415
  81.1478749  35.9772237  15.6419154  77.0284806  24.3486794  21.5688845
  76.5163709  23.7407977  21.9273876  76.8564302  25.0643387  22.0362821
  76.9274443  24.3650093  21.6905069  71.8750521  22.7924369  24.2191207
  71.7053111  23.4525744  23.6739413  71.4316471  23.0030931  24.9403696
  71.7849855  22.9210351  24.2452836  80.9053877  22.2711039  24.0091100
  81.4625307  22.0424848  23.3769566  80.5814942  23.0316704  23.7326313
  80.9400287  22.3494875  23.8747598  68.7752586  25.6971235  19.4779697
  68.2279305  25.0271880  19.5960565  69.5644964  25.3301083  19.5423164
  68.8104769  25.5436221  19.5048397  78.6236994  25.3578692  24.9743108
  79.3748321  25.6730369  25.2882662  78.8159570  25.1557863  24.1477029
  78.7628408  25.3746074  24.8986503  67.5339555  24.9092043  16.6325720
  67.3561316  24.4568652  17.3580635  67.2458577  25.7118204  16.8164197
  67.4652508  24.9614600  16.7669223  69.2712025  27.4419766  13.7447479
  68.4057544  27.4305457  13.6330250  69.3710841  27.2549989  14.5918618
  69.1586192  27.4125828  13.8536423  81.8493554  32.6287712  14.8881396
  82.3204733  33.3427974  15.0571381  82.1853733  32.0286462  15.4241266
  81.9688669  32.6459176  14.9913772  78.7663049  17.4015182  21.8439491
  78.8990955  16.6046176  22.1720467  79.1508202  17.9281585  22.4237767
  78.8419378  17.3615099  21.9782994  82.4867501  32.4205646  21.6509089
  81.9388447  31.7963530  21.3829154  82.9480529  32.6099918  20.9353168
  82.4734710  32.3564696  21.5059520  76.4251496  17.3974357  20.0917385
  76.9695909  17.0565484  20.6821726  76.4788432  18.2559819  20.2338669
  76.5140616  17.4729617  20.1999258  72.2382055  31.1590773  16.9656193
  72.8426912  31.1186608  16.3370013  72.0309367  32.0061926  16.9960248
  72.2970952  31.2778776  16.8772309  82.0525827  33.4256719  18.1818430
  82.8724201  33.2819685  18.4434725  81.7719905  34.0502918  18.7234868
  82.1322570  33.4967071  18.3006369  67.4733337  30.1425391  16.8355116
  67.3757615  29.3321662  17.1445172  68.2562207  30.1217184  16.4501384
  67.5749474  30.0192481  16.8241979  80.8830102  45.7398618  13.5566575
  80.6480287  44.9066270  13.4498843  81.0215743  46.0203284  12.7427775
  80.8685765  45.6582121  13.4208930  80.6532248  43.9647983  18.9476396
  80.3870663  43.1487099  19.1067386  80.6670812  44.0101138  18.0771911
  80.6156970  43.8504887  18.8429878  81.0625662  44.7506762  16.2288140
  80.8801235  44.7253648  15.3760432  81.7975330  45.2205700  16.2677049
  81.1439725  44.8168124  16.1086058  81.0296572  41.6300263  16.3787206
  81.6070074  41.4936713  17.0179452  80.3310634  41.1736047  16.6332791
  81.0117593  41.5422529  16.5109496  76.5055405  40.4812156  13.0935025
  76.5915657  40.1044024  13.8748555  77.1331203  40.1072601  12.6154983
  76.6111956  40.3697638  13.1380502  82.0931364  49.2503889  17.1466386
  82.1335509  49.5218740  16.3186165  82.6525888  49.7745797  17.5624174
  82.1814710  49.3679644  17.0858274  81.2617520  38.1554250  11.2217909
  81.3633657  38.9580412  11.5498885  82.0573407  37.9541586  10.9240990
  81.3945426  38.2440149  11.2253265  82.0781253  38.2701429  18.9639031
  81.9366744  37.4185369  19.0883539  82.3621816  38.3130089  18.1401237
  82.0989099  38.1501179  18.8606655  82.8471558  36.1831776  22.2816481
  82.3113747  35.5712134  22.5977248  82.9089322  36.7579912  22.9350148
  82.7767190  36.1778704  22.4251908  81.5394575  40.7747461  12.4097303
  81.9193540  41.1932006  11.7457570  80.9649940  41.3560916  12.7166146
  81.5105900  40.9225320  12.3574044  82.6600944  39.9627402  14.8697548
  82.2657641  40.0370414  14.0947658  82.1041060  40.3485349  15.4205910
  82.5203756  40.0309177  14.8365208  82.3310047  46.4085725  19.6038347
  81.8009971  45.7178164  19.6533321  82.6035140  46.3995911  18.7751055
  82.2934769  46.3052857  19.4885762  77.6105889  43.0813490  16.9606695
  77.5049338  43.0360334  16.0958779  76.8606109  43.4267270  17.2420980
  77.4841492  43.1254398  16.8744025  82.8483105  38.3109677  24.2191207
  82.6785695  38.9711052  23.6739413  82.4049054  38.5216238  24.9403696
  82.7582438  38.4395659  24.2452836  79.7485169  41.2156543  19.4779697
  79.2011889  40.5457188  19.5960565  80.5377547  40.8486391  19.5423164
  79.7837353  41.0621529  19.5048397  78.5072139  40.4277351  16.6325720
  78.3293900  39.9753960  17.3580635  78.2191161  41.2303512  16.8164197
  78.4385092  40.4799908  16.7669223  80.2444608  42.9605074  13.7447479
  79.3790128  42.9490765  13.6330250  80.3443424  42.7735297  14.5918618
  80.1318775  42.9311136  13.8536423  78.4465921  45.6610699  16.8355116
  78.3490199  44.8506970  17.1445172  79.2294790  45.6402492  16.4501384
  78.5482057  45.5377789  16.8241979   1.3708463  39.9463853  63.1366480
   1.3402467  40.8008490  63.3084749   1.9689811  39.6459146  63.6952623
   1.4545621  40.0280350  63.2441282   3.3020829  45.4454898  66.5929859
   2.4718532  45.6565542  66.7563275   3.2530081  44.6191953  66.3172142
   3.1727564  45.3544505  66.5767224   2.7974787  38.0925299  70.3880280
   1.9603208  38.1627486  70.6227875   2.7663018  38.0949794  69.5154583
   2.6693070  38.1035526  70.2939828   0.4782627  33.1568080  68.9724003
   1.1208535  33.2266185  69.5585918   0.7305648  32.4897303  68.4703544
   0.6104759  33.0694429  68.9851282   3.6929490  42.8335173  65.6214212
   4.3545924  42.2725841  65.5210120   3.0520902  42.3387203  65.9466903
   3.6958358  42.6771582  65.6546552   1.8084778  42.6902221  63.1995804
   2.1392995  43.2229861  62.5935899   2.3817866  42.7441109  63.8557755
   1.9418457  42.7771790  63.2073586   2.9164129  37.9312718  64.7035966
   2.6600694  37.1192659  64.5133849   3.7593443  37.9390285  64.4766153
   3.0030155  37.8124715  64.6420783   1.6225709  44.8706763  70.6022813
   1.3171526  45.6034819  70.9636129   0.9031925  44.4644692  70.3215599
   1.4713052  44.9188496  70.6135950   7.3227501  41.5099763  69.9291157
   7.2552002  41.5295722  69.0593744   7.3083164  42.3530090  70.1546828
   7.3106258  41.6373498  69.8343634   5.1086119  40.2844149  68.2037752
   5.6594040  39.6512218  68.4434844   5.0930234  40.8159542  68.8953256
   5.1871315  40.2693098  68.3416610   1.2063014  41.6500055  66.4763133
   1.1196989  41.8055481  67.3297912   0.7513494  42.2938130  66.1022538
   1.1266271  41.7675810  66.5470239   4.0393591  43.4299680  71.4486882
   4.0976715  43.8786329  72.1946858   3.4060059  43.8398493  71.0116962
   3.9544887  43.5573415  71.4939430   0.9915271  41.4515968  69.5352572
   0.7513494  40.6122383  69.5394998   1.4707278  41.5316135  70.2593346
   1.0267455  41.3397368  69.6427374   2.9920458  38.2317425  67.4881831
   2.7530228  38.1913259  66.6502616   3.1554359  39.0788577  67.6147552
   2.9810761  38.3509510  67.3835313   2.0301802  41.5793785  71.9217426
   2.6219642  42.2191036  71.9535624   2.4660797  40.8816822  72.2109493
   2.1820233  41.5712136  71.9698259   2.8523271  44.8878226  61.0436119
   3.2356877  45.6369582  61.2734216   2.0567384  45.1344046  60.7848108
   2.7917053  45.0347920  61.0393692  12.3441046  55.4649161  63.1366480
  12.3135051  56.3193798  63.3084749  12.9422395  55.1644454  63.6952623
  12.4278204  55.5465658  63.2441282   5.5440731  54.5524812  67.8919410
   4.6878627  54.7133310  67.9428527   5.5908385  53.6816876  67.9124471
   5.4239843  54.4475614  67.9025476   5.3806831  64.5112900  59.0842189
   5.0458199  65.1889821  58.6486411   5.8933701  64.1218211  58.4959060
   5.4072412  64.5537478  58.9328980   8.3892552  56.6116856  70.5351062
   8.9348512  57.2901943  70.5945031   8.3309429  56.4704317  69.6752643
   8.4608467  56.6908858  70.4163122  10.1657621  58.0401463  61.4084789
  10.0497147  58.7909149  61.8376928  10.9613508  57.7825417  61.6580876
  10.2662210  58.1136310  61.5088881   2.0487946  62.0295486  62.6954132
   2.3703787  62.5700694  62.0915440   2.6960043  61.4592258  62.8276422
   2.1914002  62.0254661  62.6261167   4.0989654  54.0311481  62.7788519
   4.7969819  54.2099609  63.2709982   4.4141987  53.5081821  62.1558908
   4.2484992  53.9805253  62.7590529   4.2877590  60.4181926  62.7668310
   4.7271225  59.8099027  63.2123083   4.1382253  60.0389300  61.9953775
   4.3299056  60.2720397  62.7187477   2.2716518  49.4003878  66.8609793
   1.9419848  49.8515021  66.1913492   1.5961520  49.3220041  67.4082800
   2.1226954  49.4555013  66.8433016   7.8886926  58.7709108  59.7199079
   7.8038221  59.6270074  59.8648648   8.3771310  58.4953432  60.3881238
   7.9475824  58.8566429  59.8401161   9.4792926  45.3889401  65.1059404
   9.1646367  46.0792879  65.5379826   8.9619867  45.3334183  64.4044904
   9.3557396  45.4824289  65.0656353   8.8205360  55.3893902  61.2196814
   8.2916831  55.6053535  61.8794121   9.3430380  56.0830040  61.1397784
   8.8193813  55.5237039  61.3052414  14.2753413  60.9640206  66.5929859
  13.4451116  61.1750850  66.7563275  14.2262665  60.1377261  66.3172142
  14.1460148  60.8729812  66.5767224   5.1682182  55.5322771  58.4973203
   5.4078186  55.7400754  57.6848546   5.4898023  54.7280279  58.6062147
   5.2519340  55.4436872  58.3933756  13.7707371  53.6110607  70.3880280
  12.9335792  53.6812794  70.6227875  13.7395602  53.6135102  69.5154583
  13.6425653  53.6220834  70.2939828   4.5129256  46.8712896  62.0759878
   5.2415416  46.6928851  61.6298034   4.6024149  47.7130976  62.2867056
   4.6335918  46.9696774  62.0413395   8.4937557  57.8066283  65.9792172
   9.2495072  58.2397798  66.0181080   8.5999881  57.1571053  66.5526808
   8.6207727  57.7743767  66.0690197  11.5317728  61.6339561  66.7294575
  11.0952960  61.6376303  67.4853546  11.1980643  62.3145060  66.2974152
  11.4180348  61.7352016  66.7775407  11.4515211  48.6753388  68.9724003
  12.0941119  48.7451493  69.5585918  11.7038231  48.0082611  68.4703544
  11.5837343  48.5879737  68.9851282  14.6662074  58.3520480  65.6214212
  15.3278508  57.7911149  65.5210120  14.0253486  57.8572511  65.9466903
  14.6690941  58.1956890  65.6546552   5.5538882  61.6490612  57.9295135
   5.9690030  61.3175636  57.2379631   4.7230811  61.4159514  57.8015272
   5.4926890  61.5661868  57.8085983  10.9526905  59.3685863  65.3626201
  11.1882494  59.5131062  64.5353051  11.1016468  60.1328271  65.7557714
  11.0092708  59.5024917  65.2989805  12.7817361  58.2087529  63.1995804
  13.1125578  58.7415169  62.5935899  13.3550449  58.2626417  63.8557755
  12.9151040  58.2957098  63.2073586   7.9949250  56.0552432  63.8819385
   8.0896105  56.7941726  64.3359010   7.3708094  55.6269907  64.3153949
   7.9158281  56.1013752  64.0127532   8.2472272  57.9001171  57.1156337
   8.1652434  57.9703358  57.9811324   8.8851992  58.4630915  56.9240077
   8.3292109  57.9940142  57.2146286   1.6065443  57.6661909  66.5830863
   1.3484687  56.8333644  66.5562162   1.6613926  57.8919522  65.7423363
   1.5765221  57.5759681  66.4551000   6.6866493  49.7690360  66.6834956
   5.9822820  49.2799545  66.8418875   6.7351467  49.7812834  65.8123400
   6.5896545  49.6980008  66.5774295  13.8896713  53.4498026  64.7035966
  13.6333278  52.6377967  64.5133849  14.7326027  53.4575593  64.4766153
  13.9762738  53.3310023  64.6420783   8.0699805  47.3897650  69.4412120
   8.4510317  46.7075821  69.8279994   7.2663090  47.1007252  69.2587785
   8.0076267  47.2464698  69.4716176   5.3512382  57.9221626  60.1264943
   6.1653021  58.2136518  60.0147714   5.2871523  57.2681488  59.5523236
   5.4615121  57.8686820  60.0253780   1.8623105  56.6145433  59.5912144
   2.2468258  56.3953140  60.3428690   1.6134726  57.4408378  59.7213221
   1.8825178  56.7043579  59.7213221  12.5958293  60.3892070  70.6022813
  12.2904110  61.1220127  70.9636129  11.8764508  59.9830000  70.3215599
  12.4445635  60.4373803  70.6135950  18.2960085  57.0285071  69.9291157
  18.2284585  57.0481030  69.0593744  18.2815747  57.8715398  70.1546828
  18.2838841  57.1558806  69.8343634   8.7056431  48.4320229  73.2532247
   9.4510023  48.2430039  72.8395672   8.2893736  48.9578467  72.6946103
   8.7541406  48.4822374  73.1096820   2.1446348  64.8350309  61.6644515
   2.4344646  64.4439290  60.9403741   2.8749829  65.0167014  62.1049790
   2.2953232  64.8044122  61.6227322  16.0818702  55.8029457  68.2037752
  16.6326624  55.1697526  68.4434844  16.0662818  56.3344850  68.8953256
  16.1603899  55.7878406  68.3416610   9.7847109  54.0425791  67.3142348
   9.4411874  53.3216126  67.6649598   9.8840151  53.8339642  66.4720706
   9.7489151  53.9049994  67.2414028  10.2460138  60.5051495  62.8566336
  10.8118170  61.1644705  62.7724879   9.5988041  60.8501193  63.3282738
  10.2338894  60.6533436  62.9139093   6.7166716  63.4490279  62.2803415
   6.4753392  62.7158140  61.8730480   6.8968049  63.9977136  61.6269749
   6.7074340  63.4212670  62.1233638   1.9466036  58.7398839  63.6924338
   1.7508819  59.3473574  63.0984641   2.1700382  58.0466783  63.2116012
   1.9500677  58.7276365  63.5340418   8.3038074  51.9617376  69.1901891
   7.4649175  51.9878655  68.9540154   8.3742441  52.6088111  69.7707238
   8.1906467  52.0613502  69.2411008   6.7507352  48.8602753  63.9229507
   7.4533705  48.6610501  63.4449465   6.4851541  48.0878695  64.2298350
   6.8153984  48.7165719  63.8974948  12.1795598  57.1685363  66.4763133
  12.0929572  57.3240789  67.3297912  11.7246078  57.8123438  66.1022538
  12.0998854  57.2861118  66.5470239   6.0521414  54.4896110  65.0988692
   5.8056128  54.4091861  65.9325481   6.3806537  53.7049578  64.9051220
   6.0642657  54.3622375  65.1936215   9.9469463  61.1979469  68.8875473
   9.8083822  61.8960515  69.3924216   9.1669461  61.0428125  68.5311655
   9.8112689  61.2779636  68.9101748  11.4422835  60.5557723  59.6491973
  11.0629644  59.7694861  59.6421262  10.7789081  61.1044580  59.5063617
  11.2881310  60.5202547  59.6272770   4.4240135  50.3193547  73.1832211
   4.8812750  51.0517522  73.3105003   4.4996464  49.8960013  73.9419466
   4.5031105  50.3650785  73.3133287   8.8967461  43.4983423  67.0526054
   9.0151030  43.9559886  66.3193356   8.7229637  42.6928684  66.7662271
   8.8886632  43.4477195  66.9026987   4.2669744  64.1071242  63.4880799
   5.0319635  63.8380886  63.1663463   4.1647834  63.6221252  64.2050862
   4.3651239  63.9960806  63.5460626   2.3022513  52.3095651  70.0274035
   1.5118588  52.1287111  70.3491370   2.6983136  51.5322604  70.0104329
   2.2439390  52.1683112  70.0726583   6.7888404  61.1383426  55.4680748
   7.5561389  61.1983551  55.0586600   6.3419713  60.5663867  54.9837067
   6.8361831  61.0620001  55.3358459   7.6866200  59.9438081  67.7533481
   7.0111201  59.7123314  68.2546868   7.6958576  59.3359264  67.1275586
   7.5884704  59.8197007  67.7349633   9.6882934  62.8003214  59.9843658
   9.7702772  63.6070200  59.6605109  10.1732676  62.8199173  60.7084432
   9.7720092  62.9223876  60.0430557   3.4979438  57.4788050  68.6513736
   3.0741687  57.6792549  67.9152755   3.3224293  56.6316898  68.7638036
   3.4090318  57.3836831  68.5587427   5.3241027  57.3497985  62.9535072
   5.8656573  56.8468366  63.4173693   5.6387586  57.2963179  62.1424557
   5.4505424  57.2677406  62.9018884   3.4927477  62.7415336  60.2375100
   3.5620297  61.8829875  60.3768101   4.2715932  62.9587217  59.9094125
   3.6180327  62.6468200  60.2092257   6.4730297  52.2434289  73.0057373
   6.6872266  51.6045203  72.4520727   5.8564196  52.6880113  72.5765234
   6.4135626  52.2144433  72.8607804   7.8834964  65.1653038  64.4511594
   7.4914756  64.8619753  63.7334460   8.0388037  66.0022128  64.2616547
   7.8488554  65.2436874  64.3168091   8.6369385  53.8523354  73.9440680
   7.8246066  53.5449245  74.0253852   9.0959319  53.3722355  74.5083392
   8.5849769  53.7359847  74.0395274   8.0474639  61.7303026  64.3917624
   7.6889294  61.9017669  65.1681656   7.5613350  62.1916232  63.8345623
   7.9233336  61.8241997  64.4242893   5.8645025  45.3534225  67.9944715
   4.9938583  45.3272946  67.9478025   6.1185366  45.1811417  67.1770561
   5.7738585  45.3244369  67.8664852   2.8363005  57.4102192  56.9317858
   3.1255529  58.1867074  57.2061433   2.9234803  56.8990923  57.6332358
   2.8917261  57.4494110  57.0760356   2.8894166  47.3640453  69.4518186
   2.3732654  46.6720645  69.5769765   2.3288095  48.0311230  69.3980785
   2.7300679  47.3603711  69.4624252   4.9586399  47.9033413  71.2811038
   4.5718152  47.9282445  72.0624568   4.4719336  47.3375092  70.8285555
   4.8298908  47.8229164  71.3298942  10.9336379  54.4696068  69.9050741
  10.5063987  54.3822417  69.1498840  10.2962432  54.5773844  70.4905585
  10.7765986  54.4728728  69.8796182   4.6243541  44.7900399  73.5721298
   5.2536659  45.3260699  73.2942369   4.7929404  44.6977758  74.4234864
   4.7421335  44.8561761  73.6569826   8.1167459  47.3236287  66.5406600
   8.3217053  47.2558595  67.3863597   7.7893883  48.1295109  66.4727778
   8.0982707  47.4322228  66.6566255   2.8143610  54.6516856  68.2815568
   2.5106748  54.0972844  68.8825976   2.1123031  54.8309066  67.7943602
   2.6659820  54.5961638  68.2985274   1.8709708  51.9617375  62.8460270
   2.1469442  51.2436288  62.4337837   2.4708377  52.5602295  62.6381376
   2.0002972  51.9437746  62.7541031  11.3701147  47.8768052  66.0209366
  10.7575461  48.3638454  66.4063097  11.4665322  47.2011542  66.5647017
  11.2939045  47.8486360  66.1588224   5.3720228  49.6330893  61.1206865
   5.8263975  49.8041453  61.8454709   5.8460274  49.0199003  60.7204641
   5.5088548  49.5681778  61.1680627  15.0126175  58.9484988  71.4486882
  15.0709299  59.3971637  72.1946858  14.3792643  59.3583801  71.0116962
  14.9277470  59.0758723  71.4939430   2.7133248  56.3373427  62.2251872
   3.4575293  56.7247703  62.4634822   2.8593944  55.4930852  62.3892360
   2.8443833  56.2703900  62.2845842   4.6312823  48.1323686  67.2583734
   3.7848869  48.3046494  67.1325083   4.6283956  47.3273030  67.5949562
   4.5059973  48.0384715  67.2894861   5.7011124  51.9098900  68.1245791
   5.2271078  51.3840662  68.6351102   6.0729260  51.3628373  67.5560653
   5.6861013  51.7514897  68.1160939  11.9647854  56.9701276  69.5352572
  11.7246077  56.1307691  69.5394998  12.4439862  57.0501443  70.2593346
  12.0000038  56.8582676  69.6427374   7.6294624  52.8035455  61.1871545
   7.1017642  52.8864199  60.4977254   8.0890332  53.5453326  61.1836190
   7.6196474  52.9256117  61.0846240  13.9653041  53.7502733  67.4881831
  13.7262811  53.7098567  66.6502616  14.1286943  54.5973885  67.6147552
  13.9543345  53.8694818  67.3835313  10.5699072  58.1352683  73.4186876
  11.2933270  57.6825209  73.2397896  10.3049034  58.4157348  72.6359204
  10.6380345  58.1103651  73.2765592   7.1831706  61.3739019  60.3181202
   7.9065905  61.8397132  60.1745776   6.7432297  61.4412628  59.5678799
   7.2247398  61.4522855  60.1865984   6.6496988  46.5067239  72.9265413
   6.1537550  46.7030914  72.2356980   7.4066050  46.9059908  72.7554215
   6.6883813  46.5944973  72.7985550   3.9199868  50.1809585  69.5168724
   3.9442355  49.6469698  68.8281504   4.1711342  49.6726894  70.1794315
   3.9609787  50.0270489  69.5133369  13.0034386  57.0979093  71.9217426
  13.5952226  57.7376344  71.9535624  13.4393380  56.4002130  72.2109493
  13.1552817  57.0897444  71.9698259   1.6030803  50.4977591  59.0276504
   1.9246644  50.0180674  58.3735766   1.8657746  51.3077237  58.8367315
   1.6896828  50.5467489  58.9031996   6.9989958  49.8849785  71.3899983
   7.4245029  49.4322312  70.7783509   6.3846951  49.3309856  71.6664770
   6.9718603  49.7363762  71.3405008   7.4435556  65.4359723  60.4779263
   6.7264865  65.2620586  60.0126501   8.0942293  65.2012296  59.9454749
   7.4337406  65.3755516  60.3308481   5.4384180  46.3564885  64.7990560
   4.7952498  46.2062532  65.3675698   5.0983587  46.1107230  64.0339665
   5.2929258  46.2977008  64.7693575  10.0283527  54.3124312  64.2220568
   9.3574717  54.8554014  64.0933634  10.7223277  54.7819167  63.9802263
  10.0312394  54.4622583  64.1676096  10.1911654  50.7680196  67.1310942
  10.5439264  50.3409919  67.8056740   9.3326456  50.6831039  67.2612018
  10.1161099  50.6924936  67.2505952   8.1894920  54.0315564  71.0795784
   8.1692848  53.8498859  71.9330563   8.2374121  54.9027583  71.0555368
   8.1929561  54.1332102  71.2019079   4.6641914  52.4385715  60.5267168
   4.0706753  52.7602712  59.9751735   4.7017191  51.5926811  60.3188274
   4.5816303  52.3610043  60.4149939  11.6235715  45.8898607  68.0595254
  11.1166579  45.1827747  67.9916432  12.4203148  45.5591796  68.1896331
  11.6662954  45.7371759  68.0694249   7.5399730  52.3965220  63.9568918
   7.3113423  52.4197921  63.1147276   7.7997807  51.5722687  64.0763928
   7.5445918  52.2781300  63.8494116  13.8255854  60.4063534  61.0436119
  14.2089460  61.1554890  61.2734216  13.0299968  60.6529354  60.7848108
  13.7649637  60.5533228  61.0393692   2.6371146  53.0782966  58.6196498
   3.0170111  53.0962595  57.8347612   1.8963742  53.5236955  58.4987345
   2.5839984  53.1464740  58.4860066  10.2656437  51.3865157  64.2072076
  10.2650663  51.2313814  65.0656353  10.0612617  52.2328144  64.1513462
  10.2356214  51.4885778  64.3260016   7.9897289  56.0662659  67.8608283
   8.4850954  55.3485654  67.8212303   7.1797064  55.7633457  67.7462770
   7.9441182  55.9160305  67.8382009   3.4355900  59.9160472  60.0105288
   2.6267223  59.5927146  59.9638597   3.9430809  59.2093694  59.9433536
   3.3905567  59.7641788  59.9935582  10.0549107  58.8166346  70.5485412
  10.4804179  58.2940768  69.9955837   9.6906027  59.4147184  70.0274035
  10.0635710  58.8276573  70.3894422   6.6427707  62.5300611  66.8786569
   7.1138885  63.2440873  67.0476555   6.9787885  61.9299361  67.4146439
   6.7622822  62.5472075  66.9818945   3.5597202  47.3028081  73.8344664
   3.6925107  46.5059075  74.1625640   3.9442355  47.8294484  74.4142940
   3.6353531  47.2627998  73.9688167   6.6329557  44.2258407  70.4325757
   5.8275521  44.1156137  70.7493596   6.5036292  44.3270863  69.5755623
   6.4949690  44.2242077  70.3533798  10.0895518  50.3903899  71.0265454
   9.5058506  50.8913106  70.6143022  10.4099812  49.8833455  70.3929778
  10.0508693  50.3895734  70.8723962   2.6290317  49.3044494  61.3024129
   3.4506011  49.4742807  61.0605824   2.1659968  49.4591755  60.5790427
   2.6821479  49.3526227  61.1595773   1.2185649  47.2987256  72.0822558
   1.7630062  46.9578383  72.6726900   1.2722584  48.1572718  72.2243843
   1.3074768  47.3742516  72.1904431  23.3173630  70.9834469  63.1366480
  23.2867634  71.8379106  63.3084749  23.9154979  70.6829762  63.6952623
  23.4010788  71.0650966  63.2441282  16.5173315  70.0710120  67.8919410
  15.6611210  70.2318618  67.9428527  16.5640968  69.2002184  67.9124471
  16.3972426  69.9660922  67.9025476  19.3625136  72.1302164  70.5351062
  19.9081096  72.8087251  70.5945031  19.3042012  71.9889625  69.6752643
  19.4341050  72.2094166  70.4163122  21.1390204  73.5586771  61.4084789
  21.0229730  74.3094457  61.8376928  21.9346091  73.3010724  61.6580876
  21.2394794  73.6321618  61.5088881  15.0722238  69.5496789  62.7788519
  15.7702403  69.7284917  63.2709982  15.3874571  69.0267128  62.1558908
  15.2217575  69.4990561  62.7590529  15.2610173  75.9367234  62.7668310
  15.7003809  75.3284335  63.2123083  15.1114836  75.5574608  61.9953775
  15.3031639  75.7905705  62.7187477  13.2449102  64.9189186  66.8609793
  12.9152432  65.3700329  66.1913492  12.5694103  64.8405349  67.4082800
  13.0959538  64.9740321  66.8433016  18.8619510  74.2894415  59.7199079
  18.7770805  75.1455382  59.8648648  19.3503893  74.0138740  60.3881238
  18.9208407  74.3751737  59.8401161  20.4525509  60.9074709  65.1059404
  20.1378950  61.5978187  65.5379826  19.9352451  60.8519491  64.4044904
  20.3289980  61.0009597  65.0656353  19.7937943  70.9079210  61.2196814
  19.2649415  71.1238843  61.8794121  20.3162963  71.6015348  61.1397784
  19.7926396  71.0422347  61.3052414  25.2485996  76.4825514  66.5929859
  24.4183699  76.6936158  66.7563275  25.1995248  75.6562569  66.3172142
  25.1192731  76.3915120  66.5767224  16.1414765  71.0508078  58.4973203
  16.3810769  71.2586062  57.6848546  16.4630606  70.2465587  58.6062147
  16.2251923  70.9622180  58.3933756  11.4505056  62.9801474  62.3432741
  12.2051024  63.3479791  62.1049791  11.2732590  63.3541029  63.1111920
  11.5359534  63.0899662  62.4217629  24.7439954  69.1295915  70.3880280
  23.9068375  69.1998102  70.6227875  24.7128185  69.1320410  69.5154583
  24.6158237  69.1406142  70.2939828   9.8062120  65.3871793  59.0410854
   9.6237694  65.6043674  58.2151847  10.6687733  65.5010806  59.0969468
   9.9066710  65.4361691  58.9265341  15.4861839  62.3898204  62.0759878
  16.2148000  62.2114159  61.6298034  15.5756732  63.2316284  62.2867056
  15.6068502  62.4882082  62.0413395  19.4670140  73.3251591  65.9792172
  20.2227655  73.7583106  66.0181080  19.5732465  72.6756361  66.5526808
  19.5940311  73.2929075  66.0690197  22.5050311  77.1524869  66.7294575
  22.0685543  77.1561611  67.4853546  22.1713227  77.8330368  66.2974152
  22.3912931  77.2537324  66.7775407  22.4247794  64.1938696  68.9724003
  23.0673703  64.2636801  69.5585918  22.6770815  63.5267919  68.4703544
  22.5569926  64.1065045  68.9851282   9.3524147  68.6645966  57.5533327
   8.6382324  68.3784145  57.9655759   9.8368116  69.0042592  58.1939714
   9.3183511  68.6727616  57.7088962  25.6394657  73.8705788  65.6214212
  26.3011092  73.3096457  65.5210120  24.9986069  73.3757819  65.9466903
  25.6423525  73.7142197  65.6546552  21.9259488  74.8871171  65.3626201
  22.1615077  75.0316370  64.5353051  22.0749052  75.6513579  65.7557714
  21.9825291  75.0210225  65.2989805  23.7549945  73.7272837  63.1995804
  24.0858162  74.2600477  62.5935899  24.3283033  73.7811725  63.8557755
  23.8883624  73.8142406  63.2073586  18.9681834  71.5737739  63.8819385
  19.0628688  72.3127034  64.3359010  18.3440678  71.1455215  64.3153949
  18.8890864  71.6199060  64.0127532  19.2204855  73.4186479  57.1156337
  19.1385018  73.4888666  57.9811324  19.8584576  73.9816223  56.9240077
  19.3024693  73.5125450  57.2146286  12.5798027  73.1847217  66.5830863
  12.3217271  72.3518952  66.5562162  12.6346509  73.4104830  65.7423363
  12.5497804  73.0944988  66.4551000  17.6599077  65.2875668  66.6834956
  16.9555403  64.7984853  66.8418875  17.7084051  65.2998142  65.8123400
  17.5629128  65.2165316  66.5774295  24.8629296  68.9683334  64.7035966
  24.6065861  68.1563275  64.5133849  25.7058610  68.9760901  64.4766153
  24.9495322  68.8495331  64.6420783  19.0432389  62.9082958  69.4412120
  19.4242901  62.2261129  69.8279994  18.2395673  62.6192560  69.2587785
  18.9808851  62.7650006  69.4716176  16.3244966  73.4406934  60.1264943
  17.1385604  73.7321826  60.0147714  16.2604107  72.7866796  59.5523236
  16.4347705  73.3872128  60.0253780  12.8355689  72.1330741  59.5912144
  13.2200842  71.9138447  60.3428690  12.5867309  72.9593686  59.7213221
  12.8557761  72.2228887  59.7213221  23.5690876  75.9077378  70.6022813
  23.2636693  76.6405435  70.9636129  22.8497092  75.5015308  70.3215599
  23.4178219  75.9559111  70.6135950  29.2692669  72.5470379  69.9291157
  29.2017169  72.5666338  69.0593744  29.2548331  73.3900706  70.1546828
  29.2571425  72.6744114  69.8343634  10.5556126  63.8027677  64.9220925
   9.6878552  63.8750277  64.9878534  10.8431331  64.6049756  65.1108900
  10.4695874  63.9321825  64.9595692  19.6789015  63.9505537  73.2532247
  20.4242607  63.7615347  72.8395672  19.2626320  64.4763775  72.6946103
  19.7273989  64.0007682  73.1096820  27.0551286  71.3214765  68.2037752
  27.6059207  70.6882834  68.4434844  27.0395401  71.8530158  68.8953256
  27.1336482  71.3063713  68.3416610  20.7579692  69.5611099  67.3142348
  20.4144458  68.8401434  67.6649598  20.8572735  69.3524950  66.4720706
  20.7221735  69.4235302  67.2414028  21.2192721  76.0236803  62.8566336
  21.7850754  76.6830013  62.7724879  20.5720625  76.3686501  63.3282738
  21.2071478  76.1718744  62.9139093   8.4823478  67.2785937  62.3637801
   8.1948274  66.9087207  61.6269749   9.1693947  67.7480792  62.1021506
   8.5412376  67.2932906  62.2152877  12.9198620  74.2584147  63.6924338
  12.7241403  74.8658882  63.0984641  13.1432965  73.5652091  63.2116012
  12.9233261  74.2461673  63.5340418  11.3177150  71.1438885  63.8105206
  12.0399802  71.3080043  63.3509012  10.8385143  71.8648550  63.7044546
  11.3540881  71.2737115  63.7270820  19.2770657  67.4802684  69.1901891
  18.4381758  67.5063963  68.9540154  19.3475025  68.1273419  69.7707238
  19.1639051  67.5798810  69.2411008  17.7239936  64.3788061  63.9229507
  18.4266289  64.1795809  63.4449465  17.4584124  63.6064003  64.2298350
  17.7886568  64.2351027  63.8974948  23.1528181  72.6870671  66.4763133
  23.0662156  72.8426097  67.3297912  22.6978661  73.3308746  66.1022538
  23.0731438  72.8046426  66.5470239   6.0551673  68.0567149  63.2123082
   6.1567809  68.8593311  63.5404058   6.8507560  67.8554485  62.9146163
   6.1879579  68.1453048  63.2158438  17.0253997  70.0081418  65.0988692
  16.7788712  69.9277169  65.9325481  17.3539120  69.2234885  64.9051220
  17.0375241  69.8807683  65.1936215  20.9202046  76.7164777  68.8875473
  20.7816405  77.4145823  69.3924216  20.1402044  76.5613433  68.5311655
  20.7845273  76.7964944  68.9101748  22.4155419  76.0743031  59.6491973
  22.0362228  75.2880169  59.6421262  21.7521664  76.6229888  59.5063617
  22.2613894  76.0387855  59.6272770  15.3972719  65.8378855  73.1832211
  15.8545333  66.5702830  73.3105003  15.4729048  65.4145321  73.9419466
  15.4763689  65.8836093  73.3133287  19.8700045  59.0168730  67.0526054
  19.9883613  59.4745194  66.3193356  19.6962221  58.2113992  66.7662271
  19.8619216  58.9662503  66.9026987  13.2755097  67.8280959  70.0274035
  12.4851172  67.6472419  70.3491370  13.6715720  67.0507912  70.0104329
  13.2171973  67.6868420  70.0726583  17.7620988  76.6568734  55.4680748
  18.5293973  76.7168858  55.0586600  17.3152297  76.0849175  54.9837067
  17.8094415  76.5805309  55.3358459  18.6598783  75.4623389  67.7533481
  17.9843785  75.2308622  68.2546868  18.6691159  74.8544572  67.1275586
  18.5617288  75.3382315  67.7349633  14.4712021  72.9973358  68.6513736
  14.0474270  73.1977857  67.9152755  14.2956876  72.1502206  68.7638036
  14.3822902  72.9022139  68.5587427  16.2973611  72.8683293  62.9535072
  16.8389156  72.3653674  63.4173693  16.6120170  72.8148487  62.1424557
  16.4238008  72.7862714  62.9018884  17.4462880  67.7619597  73.0057373
  17.6604850  67.1230511  72.4520727  16.8296779  68.2065421  72.5765234
  17.3868209  67.7329741  72.8607804  19.6101968  69.3708662  73.9440680
  18.7978650  69.0634553  74.0253852  20.0691903  68.8907663  74.5083392
  19.5582353  69.2545155  74.0395274  16.8377609  60.8719533  67.9944715
  15.9671167  60.8458254  67.9478025  17.0917950  60.6996725  67.1770561
  16.7471169  60.8429677  67.8664852  13.8095588  72.9287500  56.9317858
  14.0988113  73.7052382  57.2061433  13.8967387  72.4176231  57.6332358
  13.8649844  72.9679418  57.0760356  13.8626749  62.8825761  69.4518186
  13.3465238  62.1905953  69.5769765  13.3020678  63.5496538  69.3980785
  13.7033262  62.8789019  69.4624252  15.9318983  63.4218721  71.2811038
  15.5450736  63.4467753  72.0624568  15.4451920  62.8560400  70.8285555
  15.8031492  63.3414472  71.3298942  21.9068962  69.9881376  69.9050741
  21.4796570  69.9007725  69.1498840  21.2695015  70.0959152  70.4905585
  21.7498569  69.9914036  69.8796182  15.5976124  60.3085707  73.5721298
  16.2269242  60.8446007  73.2942369  15.7661987  60.2163066  74.4234864
  15.7153919  60.3747069  73.6569826  19.0900043  62.8421595  66.5406600
  19.2949636  62.7743903  67.3863597  18.7626467  63.6480417  66.4727778
  19.0715291  62.9507536  66.6566255  13.7876194  70.1702164  68.2815568
  13.4839332  69.6158152  68.8825976  13.0855615  70.3494373  67.7943602
  13.6392404  70.1146946  68.2985274  12.8442291  67.4802683  62.8460270
  13.1202025  66.7621596  62.4337837  13.4440960  68.0787603  62.6381376
  12.9735556  67.4623054  62.7541031  22.3433731  63.3953360  66.0209366
  21.7308044  63.8823762  66.4063097  22.4397905  62.7196850  66.5647017
  22.2671628  63.3671668  66.1588224  16.3452812  65.1516201  61.1206865
  16.7996558  65.3226761  61.8454709  16.8192857  64.5384311  60.7204641
  16.4821132  65.0867086  61.1680627  25.9858759  74.4670296  71.4486882
  26.0441882  74.9156945  72.1946858  25.3525226  74.8769109  71.0116962
  25.9010054  74.5944031  71.4939430  13.6865832  71.8558735  62.2251872
  14.4307877  72.2433011  62.4634822  13.8326528  71.0116160  62.3892360
  13.8176417  71.7889208  62.2845842  15.6045407  63.6508994  67.2583734
  14.7581452  63.8231802  67.1325083  15.6016540  62.8458338  67.5949562
  15.4792557  63.5570023  67.2894861  16.6743707  67.4284208  68.1245791
  16.2003662  66.9025970  68.6351102  17.0461843  66.8813681  67.5560653
  16.6593596  67.2700205  68.1160939  22.9380438  72.4886584  69.5352572
  22.6978661  71.6492999  69.5394998  23.4172445  72.5686751  70.2593346
  22.9732622  72.3767984  69.6427374  18.6027207  68.3220763  61.1871545
  18.0750226  68.4049507  60.4977254  19.0622915  69.0638634  61.1836190
  18.5929058  68.4441425  61.0846240  24.9385625  69.2688041  67.4881831
  24.6995395  69.2283875  66.6502616  25.1019526  70.1159193  67.6147552
  24.9275929  69.3880126  67.3835313  21.5431655  73.6537990  73.4186876
  22.2665854  73.2010517  73.2397896  21.2781617  73.9342656  72.6359204
  21.6112928  73.6288959  73.2765592  10.5960272  66.5923283  56.2112440
  10.2473077  67.2443008  56.6743990  10.1156718  66.5780396  55.4836312
  10.4730516  66.6866336  56.1723532  17.6229572  62.0252547  72.9265413
  17.1270133  62.2216222  72.2356980  18.3798634  62.4245216  72.7554215
  17.6616397  62.1130281  72.7985550  14.8932452  65.6994893  69.5168724
  14.9174939  65.1655006  68.8281504  15.1443925  65.1912202  70.1794315
  14.9342370  65.5455797  69.5133369  11.1733774  64.4265712  68.8974468
  11.2132145  64.9274918  69.6109176  10.3483438  64.5176105  68.6280391
  11.0573300  64.5147528  68.9625007  10.9684181  69.2181813  61.7238485
  11.1087142  69.7154277  62.4267126  11.4666714  68.5168107  61.8652699
  11.0625262  69.1883792  61.8490064  10.9984403  70.0848924  59.0531062
  11.6329483  70.6809349  58.9880524  11.0810014  69.7852382  59.8676932
  11.1040954  70.1289832  59.1634148  23.9766969  72.6164401  71.9217426
  24.5684809  73.2561652  71.9535624  24.4125964  71.9187438  72.2109493
  24.1285400  72.6082752  71.9698259  12.5763386  66.0162899  59.0276504
  12.8979227  65.5365982  58.3735766  12.8390330  66.8262545  58.8367315
  12.6629412  66.0652797  58.9031996  17.9722541  65.4035093  71.3899983
  18.3977613  64.9507620  70.7783509  17.3579534  64.8495164  71.6664770
  17.9451187  65.2549070  71.3405008   7.5037391  72.2816765  62.3220608
   8.0129621  72.8781272  62.7031913   7.9771664  72.0142738  61.6397027
   7.6480767  72.3302580  62.2775131  16.4116764  61.8750193  64.7990560
  15.7685082  61.7247839  65.3675698  16.0716171  61.6292538  64.0339665
  16.2661841  61.8162316  64.7693575  21.0016111  69.8309620  64.2220568
  20.3307300  70.3739322  64.0933634  21.6955861  70.3004475  63.9802263
  21.0044978  69.9807891  64.1676096  21.1644238  66.2865504  67.1310942
  21.5171848  65.8595226  67.8056740  20.3059039  66.2016347  67.2612018
  21.0893683  66.2110244  67.2505952   9.8627923  68.9173023  65.1893788
   9.1439912  69.3337156  65.4566652  10.2340285  69.4827262  64.6385426
   9.8119855  69.0622305  65.1476595  19.1627504  69.5500872  71.0795784
  19.1425431  69.3684167  71.9330563  19.2106705  70.4212891  71.0555368
  19.1662145  69.6517410  71.2019079  15.6374497  67.9571023  60.5267168
  15.0439337  68.2788020  59.9751735  15.6749775  67.1112119  60.3188274
  15.5548886  67.8795351  60.4149939  22.5968298  61.4083915  68.0595254
  22.0899163  60.7013055  67.9916432  23.3935732  61.0777104  68.1896331
  22.6395537  61.2557067  68.0694249  18.5132314  67.9150528  63.9568918
  18.2846007  67.9383229  63.1147276  18.7730390  67.0907995  64.0763928
  18.5178502  67.7966608  63.8494116  11.5677076  66.4527074  65.2523114
  12.0434443  66.8144154  64.6173295  11.0665676  67.1083542  65.5323256
  11.5642435  66.6021263  65.1999855  24.7988438  75.9248842  61.0436119
  25.1822044  76.6740198  61.2734216  24.0032551  76.1714662  60.7848108
  24.7382220  76.0718536  61.0393692  13.6103730  68.5968274  58.6196498
  13.9902694  68.6147903  57.8347612  12.8696326  69.0422263  58.4987345
  13.5572567  68.6650048  58.4860066  21.2389020  66.9050465  64.2072076
  21.2383247  66.7499122  65.0656353  21.0345200  67.7513452  64.1513462
  21.2088798  67.0071086  64.3260016  18.9629872  71.5847967  67.8608283
  19.4583537  70.8670962  67.8212303  18.1529648  71.2818764  67.7462770
  18.9173765  71.4345613  67.8382009  14.4088484  75.4345780  60.0105288
  13.5999806  75.1112454  59.9638597  14.9163393  74.7279002  59.9433536
  14.3638150  75.2827096  59.9935582  21.0281691  74.3351654  70.5485412
  21.4536763  73.8126076  69.9955837  20.6638611  74.9332492  70.0274035
  21.0368294  74.3461881  70.3894422  14.5329785  62.8213389  73.8344664
  14.6657691  62.0244383  74.1625640  14.9174938  63.3479792  74.4142940
  14.6086114  62.7813306  73.9688167  17.6062141  59.7443715  70.4325757
  16.8008104  59.6341445  70.7493596  17.4768876  59.8456171  69.5755623
  17.4682273  59.7427385  70.3533798  21.0628101  65.9089207  71.0265454
  20.4791090  66.4098414  70.6143022  21.3832395  65.4018763  70.3929778
  21.0241276  65.9081042  70.8723962  13.6022900  64.8229802  61.3024129
  14.4238595  64.9928115  61.0605824  13.1392551  64.9777063  60.5790427
  13.6554063  64.8711535  61.1595773  12.1918232  62.8172564  72.0822558
  12.7362645  62.4763691  72.6726900  12.2455168  63.6758026  72.2243843
  12.2807352  62.8927824  72.1904431  31.4258093  76.4260017  65.1059404
  31.1111534  77.1163495  65.5379826  30.9085035  76.3704799  64.4044904
  31.3022563  76.5194905  65.0656353  26.4594423  77.9083512  62.0759878
  27.1880584  77.7299467  61.6298034  26.5489316  78.7501592  62.2867056
  26.5801085  78.0067390  62.0413395  33.3980378  79.7124004  68.9724003
  34.0406286  79.7822109  69.5585918  33.6503398  79.0453227  68.4703544
  33.5302510  79.6250353  68.9851282  28.6331660  80.8060976  66.6834956
  27.9287987  80.3170161  66.8418875  28.6816635  80.8183450  65.8123400
  28.5361712  80.7350624  66.5774295  30.0164972  78.4268266  69.4412120
  30.3975484  77.7446437  69.8279994  29.2128257  78.1377868  69.2587785
  29.9541434  78.2835314  69.4716176  30.6521599  79.4690845  73.2532247
  31.3975191  79.2800655  72.8395672  30.2358903  79.9949083  72.6946103
  30.7006573  79.5192990  73.1096820  28.6972519  79.8973369  63.9229507
  29.3998872  79.6981117  63.4449465  28.4316708  79.1249311  64.2298350
  28.7619152  79.7536335  63.8974948  30.8432629  74.5354038  67.0526054
  30.9616197  74.9930502  66.3193356  30.6694804  73.7299300  66.7662271
  30.8351800  74.4847811  66.9026987  27.8110192  76.3904841  67.9944715
  26.9403750  76.3643562  67.9478025  28.0650534  76.2182033  67.1770561
  27.7203752  76.3614984  67.8664852  24.8359333  78.4011069  69.4518186
  24.3197821  77.7091261  69.5769765  24.2753262  79.0681846  69.3980785
  24.6765846  78.3974327  69.4624252  26.9051566  78.9404029  71.2811038
  26.5183319  78.9653061  72.0624568  26.4184504  78.3745708  70.8285555
  26.7764075  78.8599780  71.3298942  26.5708708  75.8271015  73.5721298
  27.2001826  76.3631315  73.2942369  26.7394571  75.7348374  74.4234864
  26.6886503  75.8932377  73.6569826  30.0632626  78.3606903  66.5406600
  30.2682220  78.2929211  67.3863597  29.7359050  79.1665724  66.4727778
  30.0447874  78.4692844  66.6566255  33.3166314  78.9138667  66.0209366
  32.7040628  79.4009070  66.4063097  33.4130489  78.2382158  66.5647017
  33.2404212  78.8856976  66.1588224  26.5777991  79.1694302  67.2583734
  25.7314036  79.3417110  67.1325083  26.5749123  78.3643646  67.5949562
  26.4525141  79.0755331  67.2894861  28.5962156  77.5437855  72.9265413
  28.1002717  77.7401530  72.2356980  29.3531218  77.9430524  72.7554215
  28.6348980  77.6315589  72.7985550  27.3849348  77.3935501  64.7990560
  26.7417666  77.2433147  65.3675698  27.0448755  77.1477846  64.0339665
  27.2394425  77.3347624  64.7693575  32.1376822  81.8050811  67.1310942
  32.4904432  81.3780534  67.8056740  31.2791623  81.7201655  67.2612018
  32.0626266  81.7295552  67.2505952  33.5700882  76.9269223  68.0595254
  33.0631746  76.2198363  67.9916432  34.3668315  76.5962412  68.1896331
  33.6128121  76.7742375  68.0694249  25.5062369  78.3398697  73.8344664
  25.6390275  77.5429690  74.1625640  25.8907522  78.8665100  74.4142940
  25.5818698  78.2998614  73.9688167  28.5794724  75.2629023  70.4325757
  27.7740688  75.1526753  70.7493596  28.4501460  75.3641479  69.5755623
  28.4414857  75.2612693  70.3533798   1.0659287  16.8841984  50.0706526
   1.0353291  17.7386621  50.2424796   1.6640635  16.5837277  50.6292670
   1.1496445  16.9658481  50.1781329   2.9971653  22.3833029  53.5269906
   2.1669356  22.5943673  53.6903322   2.9480905  21.5570084  53.2512189
   2.8678388  22.2922636  53.5107271   2.4925611  15.0303430  57.3220327
   1.6554032  15.1005617  57.5567921   2.4613842  15.0327925  56.4494629
   2.3643894  15.0413657  57.2279875   3.3880314  19.7713304  52.5554259
   4.0496748  19.2103972  52.4550167   2.7471726  19.2765334  52.8806950
   3.3909182  19.6149713  52.5886599   1.5035602  19.6280352  50.1335851
   1.8343819  20.1607992  49.5275946   2.0768690  19.6819240  50.7897802
   1.6369281  19.7149921  50.1413633   2.6114953  14.8690849  51.6376013
   2.3551518  14.0570790  51.4473896   3.4544267  14.8768416  51.4106200
   2.6980979  14.7502846  51.5760830   1.3176533  21.8084894  57.5362860
   1.0122350  22.5412951  57.8976176   0.5982749  21.4022823  57.2555646
   1.1663875  21.8566627  57.5475997   7.0178325  18.4477894  56.8631204
   6.9502826  18.4673854  55.9933791   7.0033988  19.2908222  57.0886875
   7.0057082  18.5751629  56.7683681   4.8036943  17.2222281  55.1377799
   5.3544864  16.5890350  55.3774891   4.7881058  17.7537673  55.8293303
   4.8822139  17.2071229  55.2756657   0.9013838  18.5878186  53.4103180
   0.8147813  18.7433612  54.2637958   0.4464318  19.2316261  53.0362585
   0.8217095  18.7053941  53.4810286   3.7344415  20.3677812  58.3826929
   3.7927539  20.8164460  59.1286905   3.1010883  20.7776624  57.9457009
   3.6495710  20.4951546  58.4279477   0.6866095  18.3894099  56.4692619
   0.4464318  17.5500514  56.4735045   1.1658102  18.4694266  57.1933392
   0.7218278  18.2775499  56.5767421   2.6871282  15.1695557  54.4221878
   2.4481052  15.1291391  53.5842663   2.8505183  16.0166709  54.5487599
   2.6761585  15.2887642  54.3175360   1.7252626  18.5171917  58.8557473
   2.3170466  19.1569167  58.8875671   2.1611620  17.8194953  59.1449540
   1.8771057  18.5090267  58.9038305   2.5474095  21.8256357  47.9776165
   2.9307701  22.5747714  48.2074262   1.7518208  22.0722177  47.7188155
   2.4867877  21.9726051  47.9733739  12.0391870  32.4027292  50.0706526
  12.0085875  33.2571929  50.2424796  12.6373219  32.1022585  50.6292670
  12.1229028  32.4843789  50.1781329   5.2391555  31.4902943  54.8259457
   4.3829451  31.6511442  54.8768574   5.2859209  30.6195007  54.8464518
   5.1190667  31.3853745  54.8365523   8.5485272  37.7589469  64.4319913
   9.2552039  37.2641500  64.5606847   8.7373207  38.1998551  63.7022571
   8.6813177  37.7507819  64.3428958   5.0757655  41.4491031  46.0182235
   4.7409023  42.1267952  45.5826458   5.5884525  41.0596342  45.4299107
   5.1023236  41.4915609  45.8669027   4.6161946  43.4005299  51.9593347
   5.0001325  43.9692198  51.4198122   4.5521087  42.6754810  51.4799163
   4.6635373  43.3780763  51.8087210   8.0843376  33.5494987  57.4691108
   8.6299336  34.2280074  57.5285078   8.0260252  33.4082448  56.6092690
   8.1559290  33.6286989  57.3503169   1.2017451  41.0384053  52.8559461
   1.3027814  40.2284407  53.1656589   0.6059196  40.9441000  52.2259139
   1.1289990  40.9049082  52.8085699   9.8608445  34.9779594  48.3424836
   9.7447971  35.7287281  48.7716974  10.6564331  34.7203548  48.5920923
   9.9613034  35.0514441  48.4428928   1.0418191  45.9561643  54.2574317
   1.6855646  46.3974807  54.6470475   1.3674446  45.1515069  54.1704576
   1.1850019  45.9026837  54.3019794   1.7438770  38.9673617  49.6294179
   2.0654611  39.5078825  49.0255487   2.3910867  38.3970389  49.7616468
   1.8864825  38.9632793  49.5601214   3.7940478  30.9689612  49.7128565
   4.4920643  31.1477740  50.2050029   4.1092811  30.4459952  49.0898955
   3.9435816  30.9183384  49.6930575   3.9828414  37.3560057  49.7008357
   4.4222049  36.7477158  50.1463130   3.8333077  36.9767431  48.9293822
   4.0249879  37.2098529  49.6527524   1.4500057  35.9504069  56.9027182
   2.0949059  35.4576512  56.5838131   1.6901834  36.0928856  57.7293261
   1.5810642  35.8981511  56.9776716   3.9886148  38.7958975  56.5534075
   4.2709391  38.0010381  56.3320831   4.7172309  39.2739563  56.5739136
   4.1375712  38.7493572  56.5237090   1.9667342  26.3382009  53.7949840
   1.6370672  26.7893153  53.1253539   1.2912344  26.2598172  54.3422846
   1.8177778  26.3933144  53.7773063   7.5837750  35.7087239  46.6539126
   7.4989045  36.5648205  46.7988695   8.0722134  35.4331563  47.3221285
   7.6426648  35.7944560  46.7741208   9.1743750  22.3267532  52.0399451
   8.8597191  23.0171011  52.4719873   8.6570691  22.2712314  51.3384951
   9.0508220  22.4202421  51.9996400   8.5156184  32.3272033  48.1536861
   7.9867655  32.5431666  48.8134167   9.0381203  33.0208171  48.0737831
   8.5144637  32.4615170  48.2392460  13.9704236  37.9018337  53.5269906
  13.1401940  38.1128981  53.6903322  13.9213489  37.0755392  53.2512189
  13.8410972  37.8107944  53.5107271   2.0313974  40.7322191  56.3617815
   1.5140916  40.3729606  55.7579123   2.7288365  40.2084366  56.3723881
   2.0579555  40.6019879  56.2748074   5.6877566  41.1817006  62.3233988
   5.7760912  40.9943146  63.1712199   6.1167279  40.5354435  61.9238835
   5.7639668  41.0580013  62.3905740   3.2548026  40.4648166  61.3051650
   2.6918861  40.0520775  61.8291312   4.0169049  40.3901071  61.7244794
   3.2842474  40.3925566  61.4444651   4.8633006  32.4700902  45.4313250
   5.1029009  32.6778885  44.6188593   5.1848847  31.6658410  45.5402194
   4.9470164  32.3815003  45.3273803  13.4658195  30.5488738  57.3220327
  12.6286616  30.6190925  57.5567921  13.4346426  30.5513233  56.4494629
  13.3376477  30.5598965  57.2279875   4.2080080  23.8091027  49.0099924
   4.9366240  23.6306982  48.5638081   4.2974973  24.6509107  49.2207103
   4.3286742  23.9074906  48.9753442   8.1888381  34.7444414  52.9132218
   8.9445896  35.1775929  52.9521127   8.2950705  34.0949184  53.4866854
   8.3158551  34.7121898  53.0030244  11.2268552  38.5717692  53.6634621
  10.7903784  38.5754434  54.4193593  10.8931467  39.2523191  53.2314199
  11.1131172  38.6730148  53.7115454   5.7997625  40.6126025  64.9877772
   6.5838042  40.7256872  65.3533514   5.5994220  39.7867162  65.1836458
   5.8863651  40.5072744  65.0712158  11.1466035  25.6131520  55.9064049
  11.7891943  25.6829624  56.4925965  11.3989055  24.9460742  55.4043591
  11.2788167  25.5257868  55.9191329   5.9568019  42.5236127  58.6344227
   5.1583264  42.2835627  58.8918096   6.4054030  42.5750520  59.3811275
   5.9042630  42.4958518  58.7829152  14.3612898  35.2898612  52.5554259
  15.0229332  34.7289280  52.4550167  13.7204310  34.7950642  52.8806950
  14.3641765  35.1335021  52.5886599   5.2489706  38.5868743  44.8635182
   5.6640854  38.2553767  44.1719678   4.4181635  38.3537645  44.7355319
   5.1877714  38.5039999  44.7426029  10.6477729  36.3063994  52.2966247
  10.8833318  36.4509193  51.4693098  10.7967292  37.0706402  52.6897761
  10.7043532  36.4403048  52.2329851  12.4768185  35.1465660  50.1335851
  12.8076402  35.6793300  49.5275946  13.0501273  35.2004548  50.7897802
  12.6101864  35.2335229  50.1413633   5.0168755  36.2696572  66.5264416
   4.2241736  36.5840083  66.7117035   5.1317683  36.4848040  65.6885200
   4.9164166  36.3480408  66.4302750   7.6900074  32.9930563  50.8159431
   7.7846929  33.7319857  51.2699057   7.0658918  32.5648038  51.2493996
   7.6109105  33.0391883  50.9467579   5.9452548  36.1716775  61.4649712
   6.5191410  35.5344020  61.6198276   5.8667352  36.1720858  60.5959370
   6.0185783  36.0781887  61.3596123   7.9423096  34.8379302  44.0496383
   7.8603258  34.9081490  44.9151370   8.5802816  35.4009046  43.8580124
   8.0242933  34.9318274  44.1486333   1.3016267  34.6040040  53.5170910
   1.0435511  33.7711775  53.4902209   1.3564750  34.8297653  52.6763410
   1.2716045  34.5137812  53.3891046   6.3817317  26.7068491  53.6175002
   5.6773644  26.2177677  53.7758922   6.4302291  26.7190966  52.7463447
   6.2847369  26.6358139  53.5114342   3.9424268  30.6301152  58.8628183
   3.5538700  30.2055370  58.2080374   3.2778966  30.8783302  59.3705209
   3.7871195  30.6039873  58.8416051  13.5847537  30.3876157  51.6376013
  13.3284102  29.5756098  51.4473896  14.4276851  30.3953724  51.4106200
  13.6713562  30.2688154  51.5760830   7.7650629  24.3275781  56.3752167
   8.1461141  23.6453952  56.7620041   6.9613914  24.0385383  56.1927832
   7.7027091  24.1842829  56.4056223   5.0463206  34.8599757  47.0604990
   5.8603845  35.1514650  46.9487761   4.9822347  34.2059619  46.4863283
   5.1565945  34.8064951  46.9593827  11.2672696  37.5425753  61.4734565
  11.0311334  36.7113818  61.3546626  11.9115925  37.4911360  62.0589410
  11.3267367  37.4123441  61.5420459   0.9171114  38.3321274  52.1877302
   1.5545061  38.0933022  52.7329095   1.3426186  38.5358433  51.4530463
   1.0747280  38.3272284  52.1594459   1.5573929  33.5523564  46.5252191
   1.9419082  33.3331271  47.2768736   1.3085550  34.3786509  46.6553268
   1.5776002  33.6421710  46.6553268   1.7242470  26.8329979  66.2414776
   1.4095911  27.6029542  65.9784338   1.4032402  26.2700235  65.6567002
   1.6301389  26.8640248  66.1156125  12.2909117  37.3270202  57.5362860
  11.9854934  38.0598258  57.8976176  11.5715332  36.9208131  57.2555646
  12.1396459  37.3751935  57.5475997   3.2992586  38.8093697  53.8671088
   3.3731594  38.6468869  54.7212938   4.1162092  38.9983886  53.6231570
   3.4308945  38.8130439  53.9569114  17.9910909  33.9663202  56.8631204
  17.9235409  33.9859161  55.9933791  17.9766571  34.8093530  57.0886875
  17.9789665  34.0936937  56.7683681   8.4007255  25.3698360  60.1872294
   9.1460847  25.1808170  59.7735719   7.9844560  25.8956598  59.6286150
   8.4492230  25.4200505  60.0436867   1.8397172  41.7728440  48.5984562
   2.1295470  41.3817421  47.8743788   2.5700653  41.9545145  49.0389837
   1.9904056  41.7422254  48.5567369  15.7769526  32.7407589  55.1377799
  16.3277448  32.1075658  55.3774891  15.7613642  33.2722981  55.8293303
  15.8554723  32.7256537  55.2756657   2.4291917  36.5746186  59.6837692
   1.9303611  37.2861954  59.7622581   3.2392141  36.8946852  59.6455854
   2.4748024  36.7273034  59.6894261   9.4797932  30.9803922  54.2482395
   9.1362698  30.2594257  54.5989644   9.5790975  30.7717773  53.4060753
   9.4439975  30.8428125  54.1754075   1.9471043  45.1225212  50.4475404
   2.5995101  44.5901655  50.6766430   1.2496652  44.7693865  50.8343278
   1.9401761  44.9914735  50.5387571   9.9410962  37.4429626  49.7906383
  10.5068994  38.1022836  49.7064926   9.2938865  37.7879324  50.2622785
   9.9289718  37.5911568  49.8479139   1.3558975  29.4327230  64.9799990
   0.5458751  29.7385010  64.8689833   1.8333662  30.1532813  65.0952574
   1.3062454  29.5841831  64.9807061   6.4117540  40.3868410  49.2143462
   6.1704216  39.6536271  48.8070527   6.5918873  40.9355267  48.5609795
   6.4025164  40.3590802  49.0573685   1.6416860  35.6776970  50.6264384
   1.4459643  36.2851705  50.0324687   1.8651206  34.9844914  50.1456058
   1.6451501  35.6654496  50.4680465   7.9988898  28.8995507  56.1241938
   7.1599998  28.9256786  55.8880201   8.0693265  29.5466242  56.7047284
   7.8857291  28.9991633  56.1751055   6.4458176  25.7980884  50.8569554
   7.1484529  25.5988632  50.3789512   6.1802365  25.0256826  51.1638397
   6.5104808  25.6543850  50.8314995  11.8746422  34.1063494  53.4103180
  11.7880396  34.2618920  54.2637958  11.4196902  34.7501569  53.0362585
  11.7949678  34.2239249  53.4810286   1.2086732  27.0616169  59.9100434
   1.0169929  27.0771304  60.7599858   2.0585328  27.2579843  59.8867089
   1.3062454  27.0930520  60.0323729   5.7472238  31.4274241  52.0328739
   5.5006952  31.3469992  52.8665528   6.0757361  30.6427709  51.8391267
   5.7593481  31.3000506  52.1276262   9.6420287  38.1357600  55.8215520
   9.5034646  38.8338646  56.3264263   8.8620284  37.9806257  55.4651702
   9.5063513  38.2157767  55.8441794   7.9798372  34.4353976  62.0737902
   7.9746410  33.5633792  62.0780328   8.6859366  34.6342145  61.6007358
   8.0843376  34.3357850  62.0044937   1.7069265  34.1630959  61.4451722
   1.8512641  34.7432168  60.8094832   2.0544914  34.5407256  62.1501577
   1.7796726  34.3051663  61.4550717   3.8789182  33.3621128  59.2276854
   3.1312496  33.5552142  58.8225132   4.0330708  32.5366347  58.9900975
   3.7911610  33.2686239  59.1322260   0.7797020  42.3533731  58.3112749
   0.9286584  41.7936647  57.6586153   1.5597022  42.4325733  58.6945268
   0.9171114  42.2819297  58.2709698  11.1373659  37.4935854  46.5832019
  10.7580468  36.7072992  46.5761309  10.4739905  38.0422711  46.4403664
  10.9832134  37.4580678  46.5612816   3.3050321  42.5248374  59.5897240
   3.2293992  41.8557185  60.1448028   3.2340180  43.2266162  60.1037906
   3.2830928  42.5293281  59.7474088   4.1190959  27.2571679  60.1172257
   4.5763574  27.9895653  60.2445050   4.1947288  26.8338144  60.8759513
   4.1981929  27.3028917  60.2473334   8.5918285  20.4361554  53.9866100
   8.7101853  20.8938017  53.2533403   8.4180461  19.6306815  53.7002318
   8.5837456  20.3855326  53.8367034   3.9620568  41.0449373  50.4220846
   4.7270459  40.7759017  50.1003510   3.8598658  40.5599383  51.1390908
   4.0602063  40.9338938  50.4800673   1.9973337  29.2473782  56.9614081
   1.2069412  29.0665243  57.2831417   2.3933960  28.4700735  56.9444376
   1.9390214  29.1061243  57.0066630   6.4839228  38.0761557  42.4020795
   7.2512213  38.1361682  41.9926647   6.0370537  37.5041998  41.9177114
   6.5312655  37.9998132  42.2698505   7.3817024  36.8816213  54.6873527
   6.7062025  36.6501445  55.1886914   7.3909400  36.2737396  54.0615632
   7.2835528  36.7575138  54.6689680   4.5111168  31.7234042  61.4437580
   4.4470309  32.5843998  61.3157717   4.6508355  31.4066035  60.6433132
   4.5226638  31.8034208  61.3065793   9.3833758  39.7381345  46.9183705
   9.4653596  40.5448331  46.5945156   9.8683500  39.7577304  47.6424479
   9.4670916  39.8602007  46.9770604   3.1930262  34.4166181  55.5853783
   2.7692511  34.6170680  54.8492802   3.0175117  33.5695029  55.6978083
   3.1041142  34.3214962  55.4927473   2.6941955  45.9316694  58.0475241
   3.1837885  45.2327483  57.8650905   2.1226187  45.6340564  58.6351298
   2.6826485  45.7842918  58.1076281   5.0191851  34.2876116  49.8875119
   5.5607397  33.7846497  50.3513740   5.3338410  34.2341311  49.0764604
   5.1456248  34.2055537  49.8358931   8.8908958  38.4978763  67.0002031
   9.7043824  38.2263912  67.1607164   8.7303925  38.1986303  66.1962227
   8.9878907  38.4133689  66.9047437   3.1878301  39.6793467  47.1715147
   3.2571121  38.8208006  47.3108147   3.9666756  39.8965348  46.8434172
   3.3131151  39.5846331  47.1432304   6.1681120  29.1812420  59.9397419
   6.3823090  28.5423335  59.3860773   5.5515020  29.6258244  59.5105281
   6.1086450  29.1522564  59.7947851   7.5785788  42.1031169  51.3851640
   7.1865580  41.7997884  50.6674506   7.7338861  42.9400259  51.1956594
   7.5439378  42.1815005  51.2508137   8.3320208  30.7901486  60.8780727
   7.5196890  30.4827376  60.9593899   8.7910143  30.3100486  61.4423439
   8.2800593  30.6737978  60.9735321   7.7425463  38.6681158  51.3257671
   7.3840118  38.8395800  52.1021703   7.2564174  39.1294363  50.7685669
   7.6184160  38.7620129  51.3582940   5.5595849  22.2912356  54.9284762
   4.6889407  22.2651077  54.8818072   5.8136190  22.1189548  54.1110608
   5.4689409  22.2622500  54.8004899   2.5313829  34.3480323  43.8657905
   2.8206353  35.1245205  44.1401480   2.6185627  33.8369054  44.5672405
   2.5868085  34.3872241  44.0100403   5.4273716  32.1961557  65.6609429
   5.8973347  32.8203673  66.0477303   5.4735596  31.5278533  66.2202644
   5.5041592  32.1896237  65.8009500   2.5844990  24.3018585  56.3858233
   2.0683478  23.6098776  56.5109812   2.0238918  24.9689362  56.3320831
   2.4251503  24.2981842  56.3964299   4.6537223  24.8411545  58.2151085
   4.2668976  24.8660576  58.9964615   4.1670160  24.2753223  57.7625602
   4.5249732  24.7607295  58.2638989   8.9030202  39.5585054  62.2724872
   9.5409923  39.0645249  61.9387328   8.2604294  39.4862454  61.6877099
   8.9024429  39.4744062  62.1367227  10.6287203  31.4074199  56.8390787
  10.2014811  31.3200548  56.0838887   9.9913256  31.5151975  57.4245631
  10.4716810  31.4106859  56.8136229   4.3194365  21.7278530  60.5061345
   4.9487483  22.2638830  60.2282415   4.4880227  21.6355889  61.3574911
   4.4372159  21.7939892  60.5909873   4.1208280  26.5149725  62.7787757
   4.9481709  26.2434874  62.8346371   4.1416126  27.3110566  63.1351575
   4.2461130  26.5929479  62.8402940   8.9584459  40.2504862  58.9130229
   9.7476837  39.8993927  59.0332310   9.1328057  41.0641250  58.6506862
   9.1004741  40.3190719  58.8918097   7.8118283  24.2614419  53.4746647
   8.0167877  24.1936726  54.3203644   7.4844707  25.0673240  53.4067824
   7.7933531  24.3700359  53.5906302   2.5094434  31.5894987  55.2155615
   2.2057572  31.0350975  55.8166023   1.8073855  31.7687197  54.7283649
   2.3610644  31.5339769  55.2325321   1.5660531  28.8995507  49.7800317
   1.8420266  28.1814419  49.3677884   2.1659201  29.4980426  49.5721423
   1.6953796  28.8815877  49.6881078   0.5712785  38.8044707  59.9227713
   0.4633140  38.8146770  60.7889771   0.7808567  39.6299488  59.7332666
   0.5862896  38.9285782  60.0231804  11.0651971  24.8146183  52.9549412
  10.4526285  25.3016585  53.3403144  11.1616146  24.1389674  53.4987064
  10.9889869  24.7864491  53.0928271   5.0671052  26.5709024  48.0546912
   5.5214799  26.7419584  48.7794756   5.5411098  25.9577135  47.6544687
   5.2039372  26.5059909  48.1020673  14.7076999  35.8863120  58.3826929
  14.7660123  36.3349768  59.1286905  14.0743467  36.2961932  57.9457009
  14.6228294  36.0136854  58.4279477   8.3476094  41.5066661  54.8181675
   8.1495782  41.9957476  54.1237886   7.7263805  41.7107903  55.3965808
   8.2263658  41.6083200  54.8004898   2.4084072  33.2751558  49.1591919
   3.1526117  33.6625835  49.3974869   2.5544768  32.4308984  49.3232407
   2.5394657  33.2082031  49.2185889   4.3263647  25.0701817  54.1923780
   3.4799692  25.2424625  54.0665130   4.3234780  24.2651161  54.5289609
   4.2010797  24.9762846  54.2234907   5.3961948  28.8477032  55.0585838
   4.9221902  28.3218794  55.5691149   5.7680084  28.3006504  54.4900700
   5.3811837  28.6893028  55.0500986  11.6598678  33.9079407  56.4692619
  11.4196901  33.0685822  56.4735045  12.1390686  33.9879574  57.1933392
  11.6950862  33.7960807  56.5767421   7.3245447  29.7413586  48.1211592
   6.7968466  29.8242330  47.4317301   7.7841156  30.4831458  48.1176237
   7.3147298  29.8634249  48.0186287  13.6603865  30.6880864  54.4221878
  13.4213635  30.6476699  53.5842663  13.8237767  31.5352016  54.5487599
  13.6494169  30.8072949  54.3175360  10.2649896  35.0730814  60.3526923
  10.9884094  34.6203340  60.1737943   9.9999858  35.3535479  59.5699251
  10.3331169  35.0481782  60.2105638   6.8782530  38.3117150  47.2521249
   7.6016729  38.7775263  47.1085822   6.4383121  38.3790759  46.5018846
   6.9198222  38.3900986  47.1206031   6.0468685  35.1714692  58.5021938
   5.4325678  34.6272742  58.7970573   6.5635970  34.6578928  58.0227754
   6.0324347  35.0151101  58.4746167   5.2864982  36.2418962  56.2366237
   4.8592590  35.6168681  55.8031672   5.2789927  35.9593884  57.0625244
   5.2224123  36.1071743  56.2946064   6.3447812  23.4445371  59.8605460
   5.8488374  23.6409045  59.1697027   7.1016874  23.8438039  59.6894262
   6.3834637  23.5323104  59.7325597   3.6150692  27.1187717  56.4508771
   3.6393179  26.5847829  55.7621551   3.8662165  26.6105025  57.1134361
   3.6560611  26.9648621  56.4473415   2.0781627  35.4119275  63.9334810
   1.2277258  35.5490989  64.0692455   2.2409755  34.6783053  64.3782511
   1.9765491  35.3233376  64.0190409   1.3166378  32.3619045  58.1288414
   0.4858307  32.5292863  57.9223662   1.2617895  31.9854995  58.9137299
   1.1855792  32.3308776  58.2136942  12.6985210  34.0357225  58.8557473
  13.2903050  34.6754475  58.8875671  13.1344204  33.3380261  59.1449540
  12.8503641  34.0275575  58.9038305   1.2981627  27.4355723  45.9616551
   1.6197468  26.9558805  45.3075813   1.5608570  28.2455369  45.7707362
   1.3847652  27.4845621  45.8372043   4.5278599  38.4574597  59.4815367
   4.0203690  39.0110444  59.9255997   4.2305246  38.5182887  58.6634141
   4.4083484  38.5480908  59.4263823   6.6940782  26.8227917  58.3240030
   7.1195853  26.3700443  57.7123556   6.0797775  26.2687987  58.6004817
   6.6669427  26.6741893  58.2745055   7.1386380  42.3737855  47.4119310
   6.4215689  42.1998717  46.9466548   7.7893117  42.1390427  46.8794796
   7.1288230  42.3133647  47.2648528   5.1335004  23.2943016  51.7330607
   4.4903322  23.1440663  52.3015745   4.7934411  23.0485362  50.9679711
   4.9880082  23.2355139  51.7033622   9.7234351  31.2502443  51.1560615
   9.0525541  31.7932145  51.0273681  10.4174101  31.7197299  50.9142310
   9.7263218  31.4000714  51.1016143   3.7721085  43.3899155  56.3872374
   3.5486739  42.6317984  56.7556400   3.2830928  43.4197176  55.6652813
   3.6664534  43.2821380  56.3349115   9.8862478  27.7058327  54.0650989
  10.2390088  27.2788050  54.7396787   9.0277280  27.6209170  54.1952065
   9.8111923  27.6303067  54.1845999   7.8845744  30.9693695  58.0135831
   7.8643671  30.7876991  58.8670610   7.9324945  31.8405714  57.9895414
   7.8880385  31.0710234  58.1359126   5.8292074  37.5580887  63.9384307
   5.7887929  36.9130564  63.3529463   6.6415392  37.5017505  64.2509719
   5.9435228  37.4539854  63.8981257   2.4199542  43.6099613  53.8409458
   2.0059940  42.9473744  53.4513300   3.1046916  43.7577472  53.3205152
   2.4597913  43.5340271  53.7065955   5.7864836  42.7689699  54.5933075
   5.3881119  42.8791969  53.8253895   5.1716055  42.9771765  55.1759635
   5.6363725  42.8163267  54.5664374   4.3592738  29.3763846  47.4607215
   3.7657577  29.6980843  46.9091782   4.3968015  28.5304942  47.2528321
   4.2767127  29.2988175  47.3489986  11.3186538  22.8276739  54.9935301
  10.8117403  22.1205878  54.9256479  12.1153972  22.4969928  55.1236378
  11.3613778  22.6749890  55.0034296   7.2350554  29.3343351  50.8908965
   7.0064247  29.3576052  50.0487323   7.4948630  28.5100818  51.0103975
   7.2396742  29.2159431  50.7834162   1.5169783  31.1877824  60.4934065
   1.0048686  30.5799007  60.8519096   1.3449279  31.9034417  60.9608041
   1.4159420  31.2041123  60.6150289  13.5206678  37.3441665  47.9776165
  13.9040284  38.0933021  48.2074262  12.7250792  37.5907485  47.7188155
  13.4600461  37.4911359  47.9733739   5.3938853  29.1102069  62.9336321
   5.9510283  28.8815878  62.3014786   5.0699918  29.8707734  62.6571533
   5.4285263  29.1885905  62.7992818   3.1121970  32.1969722  63.8988328
   3.8633297  32.5121399  64.2127882   3.3044547  31.9948893  63.0722249
   3.2513384  32.2137104  63.8231723   2.3321970  30.0161097  45.5536544
   2.7120935  30.0340726  44.7687659   1.5914566  30.4615086  45.4327392
   2.2790808  30.0842872  45.4200113   9.9607260  28.3243288  51.1412123
   9.9601487  28.1691945  51.9996399   9.7563441  29.1706275  51.0853509
   9.9307038  28.4263909  51.2600062   7.6848113  33.0040790  54.7948330
   8.1801778  32.2863785  54.7552350   6.8747888  32.7011588  54.6802817
   7.6392006  32.8538436  54.7722056   3.1306724  36.8538603  46.9445334
   2.3218047  36.5305277  46.8978644   3.6381633  36.1471825  46.8773583
   3.0856391  36.7019920  46.9275629   9.7499931  35.7544478  57.4825459
  10.1755003  35.2318899  56.9295884   9.3856851  36.3525315  56.9614082
   9.7586534  35.7654705  57.3234468   6.3378531  39.4678742  53.8126616
   6.8089709  40.1819004  53.9816601   6.6738709  38.8677492  54.3486486
   6.4573646  39.4850206  53.9158992   8.4255515  41.0780055  65.9918688
   8.5352481  40.2888616  66.3475435   8.7546412  40.9885991  65.1893026
   8.4907921  40.9485908  65.9261079   3.2548026  24.2406212  60.7684711
   3.3875931  23.4437206  61.0965687   3.6393179  24.7672615  61.3482987
   3.3304355  24.2006129  60.9028214   6.9752477  39.2596676  60.5754309
   6.4273423  38.6354560  60.3074374   7.4365506  39.4490948  59.8598388
   6.9619687  39.1955726  60.4304740   6.3280381  21.1636538  57.3665804
   5.5226345  21.0534268  57.6833643   6.1987116  21.2648994  56.5095670
   6.1900514  21.1620209  57.2873845   9.7846342  27.3282030  57.9605501
   9.2009330  27.8291237  57.5483069  10.1050636  26.8211587  57.3269824
   9.7459517  27.3273865  57.8064008   2.3241141  26.2422625  48.2364176
   3.1456835  26.4120938  47.9945871   1.8610792  26.3969886  47.5130474
   2.3772303  26.2904358  48.0935820   0.9136473  24.2365387  59.0162605
   1.4580886  23.8956514  59.6066946   0.9673408  25.0950849  59.1583889
   1.0025592  24.3120647  59.1244478   6.5410803  40.2647749  57.1063650
   7.3609177  40.1210715  57.3679945   6.2604881  40.8893947  57.6480088
   6.6207547  40.3358101  57.2251589  16.2124139  47.0088251  54.8259457
  15.3562034  47.1696750  54.8768574  16.2591792  46.1380315  54.8464518
  16.0923250  46.9039053  54.8365523  10.5965278  56.5450969  50.5896688
   9.8448178  56.1666508  50.3612733  11.0451290  56.5769403  49.8415499
  10.5514945  56.4936576  50.4454191  19.5217855  53.2774777  64.4319913
  20.2284622  52.7826808  64.5606847  19.7105791  53.7183858  63.7022571
  19.6545761  53.2693127  64.3428958  16.0490238  56.9676339  46.0182235
  15.7141607  57.6453260  45.5826458  16.5617109  56.5781650  45.4299107
  16.0755819  57.0100917  45.8669027  15.5894530  58.9190607  51.9593347
  15.9733909  59.4877506  51.4198122  15.5253671  58.1940118  51.4799163
  15.6367957  58.8966071  51.8087210  12.1750035  56.5569361  52.8559461
  12.2760397  55.7469715  53.1656589  11.5791780  56.4626308  52.2259139
  12.1022573  56.4234389  52.8085699  12.0150774  61.4746951  54.2574317
  12.6588230  61.9160115  54.6470475  12.3407030  60.6700377  54.1704576
  12.1582603  61.4212145  54.3019794   5.3715079  52.5789648  52.4811795
   5.1365263  51.7457300  52.3744063   5.5100720  52.8594314  51.6672995
   5.3570741  52.4973151  52.3454150   7.6705166  44.7475379  55.3796102
   7.0510198  44.1568026  55.2106117   7.5689030  45.3386814  54.7460425
   7.5642842  44.7479461  55.2601092  12.7171354  54.4858925  49.6294179
  13.0387195  55.0264133  49.0255487  13.3643450  53.9155697  49.7616468
  12.8597409  54.4818101  49.5601214  14.7673062  46.4874920  49.7128565
  15.4653227  46.6663048  50.2050029  15.0825394  45.9645260  49.0898955
  14.9168399  46.4368692  49.6930575   7.3974299  48.2927660  57.6239671
   7.2732996  48.8790106  58.2589490   8.0492584  47.7987856  57.9251946
   7.4747949  48.3066465  57.7625601  12.4232640  51.4689377  56.9027182
  13.0681643  50.9761820  56.5838131  12.6634417  51.6114164  57.7293261
  12.5543225  51.4166819  56.9776716  14.9618732  54.3144283  56.5534075
  15.2441975  53.5195689  56.3320831  15.6904892  54.7924870  56.5739136
  15.1108295  54.2678880  56.5237090  12.9399926  41.8567317  53.7949840
  12.6103256  42.3078461  53.1253539  12.2644927  41.7783480  54.3422846
  12.7910362  41.9118452  53.7773063  19.4888767  47.8457341  48.1536861
  18.9600239  48.0616974  48.8134167  20.0113787  48.5393479  48.0737831
  19.4877220  47.9800478  48.2392460  11.3788375  51.7420558  46.9544329
  10.7945590  52.2470589  47.3610193  10.9758470  51.5162944  46.2140921
  11.2327679  51.7828806  46.9049354   6.9332404  57.4575319  53.7568001
   6.4499982  58.1825808  53.7327584   7.7455722  57.7551449  53.8678158
   6.9823151  57.6077672  53.7695280  13.0046558  56.2507499  56.3617815
  12.4873499  55.8914914  55.7579123  13.7020949  55.7269674  56.3723881
  13.0312139  56.1205187  56.2748074  16.6610150  56.7002313  62.3233988
  16.7493495  56.5128454  63.1712199  17.0899862  56.0539743  61.9238835
  16.7372252  56.5765321  62.3905740  14.2280609  55.9833473  61.3051650
  13.6651444  55.5706083  61.8291312  14.9901633  55.9086379  61.7244794
  14.2575058  55.9110874  61.4444651  15.8365589  47.9886210  45.4313250
  16.0761593  48.1964193  44.6188593  16.1581430  47.1843718  45.5402194
  15.9202747  47.9000311  45.3273803  11.1455880  39.9179605  49.2772788
  11.9001848  40.2857922  49.0389838  10.9683414  40.2919160  50.0451967
  11.2310358  40.0277793  49.3557676   9.7876601  57.9731495  53.9088281
  10.4897180  57.4583484  53.9661037   9.7074084  58.3005646  54.7135156
   9.8800361  57.9445721  54.0361073  10.8355507  48.2107082  63.0368696
  11.0076011  48.1012976  63.8853977  11.3724865  48.8561487  62.7999888
  10.9400511  48.2899083  63.1273792   9.5012944  42.3249924  45.9750901
   9.3188517  42.5421805  45.1491893  10.3638557  42.4388937  46.0309515
   9.6017534  42.3739822  45.8605388   9.1127376  54.1637847  53.4173889
   9.9516276  54.3960779  53.4647650   9.1439145  53.2942158  53.3480924
   9.2409094  54.0694793  53.4138533   9.7380079  54.5838722  57.7187194
  10.2778304  54.4409853  58.3890566   9.0550026  54.9835473  58.0871220
   9.7172233  54.6218393  57.8721616  15.1812663  39.3276335  49.0099924
  15.9098824  39.1492290  48.5638081  15.2707556  40.1694415  49.2207103
  15.3019326  39.4260213  48.9753442  19.1620964  50.2629722  52.9132218
  19.9178479  50.6961237  52.9521127  19.2683289  49.6134492  53.4866854
  19.2891135  50.2307206  53.0030244  16.7730209  56.1311333  64.9877772
  17.5570625  56.2442180  65.3533514  16.5726803  55.3052470  65.1836458
  16.8596234  56.0258052  65.0712158   5.1417224  50.8039013  57.8721616
   4.8755640  49.9878129  58.0312606   5.1555788  50.8492168  57.0017131
   5.1041947  50.6895917  57.7675098   9.0474971  45.6024097  44.4873374
   8.3333148  45.3162277  44.8995806   9.5318940  45.9420723  45.1279761
   9.0134335  45.6105747  44.6429009   9.8915831  44.3417391  60.5188623
   9.1987627  43.8714371  60.7649355  10.5076158  44.1155695  61.0930330
   9.8800361  44.2384523  60.6397776  16.9300602  58.0421435  58.6344227
  16.1315848  57.8020935  58.8918096  17.3786614  58.0935827  59.3811275
  16.8775213  58.0143826  58.7829152  16.2222289  54.1054051  44.8635182
  16.6373438  53.7739075  44.1719678  15.3914219  53.8722953  44.7355319
  16.1610298  54.0225307  44.7426029   5.5510638  51.5897792  55.1533360
   5.3686211  51.5644678  54.3005652   6.2860307  52.0596730  55.1922269
   5.6324702  51.6559154  55.0331278   8.6156390  48.3082795  61.6615469
   9.3396362  48.2935826  62.1480363   8.7172526  49.0178150  61.1637437
   8.7374599  48.4107498  61.6594255  15.9901339  51.7881879  66.5264416
  15.1974320  52.1025391  66.7117035  16.1050266  52.0033348  65.6885200
  15.8896750  51.8665716  66.4302750  18.6632658  48.5115871  50.8159431
  18.7579512  49.2505165  51.2699057  18.0391502  48.0833346  51.2493996
  18.5841688  48.5577191  50.9467579  16.9185132  51.6902083  61.4649712
  17.4923994  51.0529327  61.6198276  16.8399936  51.6906166  60.5959370
  16.9918367  51.5967195  61.3596123   5.5181548  48.4691293  55.3032426
   6.0955051  48.3327743  55.9424672   4.8195610  48.0127077  55.5578011
   5.5002570  48.3813559  55.4354716  18.9155679  50.3564610  44.0496383
  18.8335842  50.4266798  44.9151370  19.5535400  50.9194354  43.8580124
  18.9975517  50.4503581  44.1486333  12.2748850  50.1225348  53.5170910
  12.0168095  49.2897083  53.4902209  12.3297333  50.3482961  52.6763410
  12.2448628  50.0323120  53.3891046  14.9156851  46.1486460  58.8628183
  14.5271284  45.7240678  58.2080374  14.2511550  46.3968610  59.3705209
  14.7603779  46.1225181  58.8416051   0.9940382  47.3203186  52.0180245
   1.0800633  46.9435054  52.7993775   1.6216179  46.9463631  51.5400203
   1.0996932  47.2088668  52.0625722  16.0195790  50.3785065  47.0604990
  16.8336428  50.6699957  46.9487761  15.9554931  49.7244927  46.4863283
  16.1298529  50.3250259  46.9593827  11.8903698  53.8506582  52.1877302
  12.5277645  53.6118330  52.7329095  12.3158769  54.0543741  51.4530463
  12.0479864  53.8457592  52.1594459   6.5816340  56.0894919  56.0711606
   6.6220485  56.3609770  55.2431385   7.1410864  56.6136827  56.4869394
   6.6699686  56.2070674  56.0103494  12.5306513  49.0708872  46.5252191
  12.9151666  48.8516579  47.2768736  12.2818133  49.8971817  46.6553268
  12.5508585  49.1607018  46.6553268  12.6975053  42.3515287  66.2414776
  12.3828494  43.1214850  65.9784338  12.3764986  41.7885543  65.6567002
  12.6033972  42.3825556  66.1156125  14.2725170  54.3279005  53.8671088
  14.3464178  54.1654177  54.7212938  15.0894676  54.5169194  53.6231570
  14.4041528  54.3315747  53.9569114   8.0330926  54.6736868  50.8965532
   7.2069044  54.9198605  50.7699810   8.0942918  54.5948948  51.7627590
   7.9205093  54.6981817  51.0054476  10.2506950  40.7405809  51.8560972
   9.3829376  40.8128408  51.9218581  10.5382154  41.5427888  52.0448947
  10.1646698  40.8699956  51.8935738  12.8129755  57.2913748  48.5984562
  13.1028054  56.9002729  47.8743788  13.5433236  57.4730453  49.0389837
  12.9636640  57.2607562  48.5567369  13.4024501  52.0931494  59.6837692
  12.9036194  52.8047261  59.7622581  14.2124725  52.4132160  59.6455854
  13.4480607  52.2458342  59.6894261  10.7535671  59.2681130  51.6644711
  10.5335966  58.9778485  52.4571378  10.5330193  58.6096085  51.1362624
  10.6883265  59.1280839  51.7033620   9.6652618  51.3554447  53.9300413
   9.3765867  50.7291918  54.4646140  10.5335966  51.2974734  53.9965093
   9.7512870  51.2541991  54.0191368  12.9203627  60.6410520  50.4475404
  13.5727685  60.1086962  50.6766430  12.2229235  60.2879172  50.8343278
  12.9134345  60.5100043  50.5387571   9.8684892  52.9949698  49.8542778
  10.6230860  53.3762737  50.0678241   9.2755504  53.4460841  50.3089475
   9.8921605  53.1178525  49.9525656  12.3291559  44.9512538  64.9799990
  11.5191334  45.2570318  64.8689833  12.8066245  45.6718120  65.0952574
  12.2795037  45.1027139  64.9807061  11.1883118  54.1658259  55.2282893
  10.6663872  54.3058551  55.9134758  11.5757139  53.4068923  55.4185011
  11.1686819  54.0743783  55.3583970   8.1774302  44.2164068  49.2977848
   7.8899098  43.8465338  48.5609795   8.8644770  44.6858923  49.0361553
   8.2363200  44.2311037  49.1492924  12.6149444  51.1962278  50.6264384
  12.4192226  51.8037013  50.0324687  12.8383789  50.5030222  50.1456058
  12.6184085  51.1839804  50.4680465  11.0127974  48.0817016  50.7445253
  11.7350626  48.2458174  50.2849059  10.5335967  48.8026681  50.6384593
  11.0491705  48.2115246  50.6610867   8.6635591  50.4875088  59.8499393
   9.1756687  50.7659342  59.2008152   8.3771933  51.2264383  60.2162206
   8.6970454  50.6377442  59.8089271   5.7502497  44.9945280  50.1463129
   5.8518633  45.7971442  50.4744105   6.5458384  44.7932616  49.8486210
   5.8830402  45.0831179  50.1498485  12.1819316  42.5801477  59.9100434
  11.9902513  42.5956612  60.7599858  13.0317912  42.7765151  59.8867089
  12.2795038  42.6115828  60.0323729   6.5666229  45.1092459  57.8884251
   6.4251721  44.2576399  58.0128759   6.8506792  45.1521119  57.0646457
   6.5874075  44.9892209  57.7851875  16.7204821  46.9459549  52.0328739
  16.4739536  46.8655300  52.8665528  17.0489944  46.1613017  51.8391267
  16.7326065  46.8185814  52.1276262  20.6152870  53.6542908  55.8215520
  20.4767229  54.3523954  56.3264263  19.8352868  53.4991565  55.4651702
  20.4796097  53.7343075  55.8441794  18.9530955  49.9539283  62.0737902
  18.9478994  49.0819100  62.0780328  19.6591949  50.1527453  61.6007358
  19.0575959  49.8543158  62.0044937  12.6801849  49.6816267  61.4451722
  12.8245224  50.2617476  60.8094832  13.0277497  50.0592564  62.1501577
  12.7529310  49.8236971  61.4550717  14.8521766  48.8806436  59.2276854
  14.1045080  49.0737450  58.8225132  15.0063291  48.0551655  58.9900975
  14.7644194  48.7871547  59.1322260  11.7529604  57.8719039  58.3112749
  11.9019167  57.3121955  57.6586153  12.5329606  57.9511041  58.6945268
  11.8903697  57.8004605  58.2709698  14.2782904  58.0433682  59.5897240
  14.2026575  57.3742493  60.1448028  14.2072763  58.7451470  60.1037906
  14.2563511  58.0478589  59.7474088  15.0923543  42.7756986  60.1172257
  15.5496157  43.5080961  60.2445050  15.1679872  42.3523452  60.8759513
  15.1714513  42.8214225  60.2473334   7.3356534  43.0222806  61.2061701
   6.7998724  42.4103164  61.5222468   7.3974299  43.5970942  61.8595368
   7.2652167  43.0169734  61.3497128  12.9705921  44.7659090  56.9614081
  12.1801996  44.5850550  57.2831417  13.3666544  43.9886043  56.9444376
  12.9122797  44.6246551  57.0066630  17.4571812  53.5946865  42.4020795
  18.2244797  53.6546990  41.9926647  17.0103121  53.0227306  41.9177114
  17.5045239  53.5183440  42.2698505  18.3549607  52.4001521  54.6873527
  17.6794609  52.1686753  55.1886914  18.3641983  51.7922703  54.0615632
  18.2568112  52.2760446  54.6689680  15.4843751  47.2419350  61.4437580
  15.4202892  48.1029306  61.3157717  15.6240939  46.9251343  60.6433132
  15.4959221  47.3219516  61.3065793  14.1662845  49.9351489  55.5853783
  13.7425094  50.1355988  54.8492802  13.9907700  49.0880337  55.6978083
  14.0773726  49.8400270  55.4927473  13.6674539  61.4502002  58.0475241
  14.1570469  60.7512791  57.8650905  13.0958771  61.1525872  58.6351298
  13.6559068  61.3028225  58.1076281   9.4545290  50.4303540  51.0181756
   9.6109909  50.3650343  51.8737748   9.7945883  51.2052093  50.8060435
   9.5278525  50.5352738  51.1136350  15.9924435  49.8061424  49.8875119
  16.5339980  49.3031805  50.3513740  16.3070994  49.7526619  49.0764604
  16.1188832  49.7240845  49.8358931  19.8641542  54.0164071  67.0002031
  20.6776407  53.7449220  67.1607164  19.7036508  53.7171611  66.1962227
  19.9611491  53.9318997  66.9047437  14.1610884  55.1978775  47.1715147
  14.2303705  54.3393314  47.3108147  14.9399340  55.4150656  46.8434172
  14.2863734  55.1031639  47.1432304  18.5518372  57.6216477  51.3851640
  18.1598164  57.3183192  50.6674506  18.7071444  58.4585567  51.1956594
  18.5171962  57.7000313  51.2508137   6.0279552  47.6138491  51.3342523
   6.4078516  48.0323036  50.6702790   5.4534916  48.1951946  51.6411366
   5.9990876  47.7616350  51.2819264  16.5328433  37.8097664  54.9284762
  15.6621991  37.7836385  54.8818072  16.7868774  37.6374856  54.1110608
  16.4421993  37.7807808  54.8004899  13.5046412  49.8665631  43.8657905
  13.7938937  50.6430513  44.1401480  13.5918211  49.3554362  44.5672405
  13.5600668  49.9057549  44.0100403  16.4006300  47.7146865  65.6609429
  16.8705931  48.3388981  66.0477303  16.4468180  47.0463841  66.2202644
  16.4774175  47.7081545  65.8009500  13.5577573  39.8203892  56.3858233
  13.0416062  39.1284084  56.5109812  12.9971502  40.4874670  56.3320831
  13.3984086  39.8167150  56.3964299  15.6269807  40.3596852  58.2151085
  15.2401560  40.3845884  58.9964615  15.1402744  39.7938531  57.7625602
  15.4982316  40.2792603  58.2638989  19.8762786  55.0770361  62.2724872
  20.5142507  54.5830557  61.9387328  19.2336878  55.0047762  61.6877099
  19.8757013  54.9929370  62.1367227  15.2926948  37.2463838  60.5061345
  15.9220066  37.7824138  60.2282415  15.4612811  37.1541197  61.3574911
  15.4104743  37.3125200  60.5909873  15.0940863  42.0335033  62.7787757
  15.9214293  41.7620182  62.8346371  15.1148709  42.8295874  63.1351575
  15.2193713  42.1114787  62.8402940  19.9317043  55.7690170  58.9130229
  20.7209421  55.4179234  59.0332310  20.1060640  56.5826558  58.6506862
  20.0737324  55.8376027  58.8918097   9.6710353  49.1798895  55.9658017
   8.8298360  49.0802770  56.1736911   9.8800361  49.9494376  56.3172338
   9.5775046  49.2790939  56.0485332   7.1485920  46.8018432  53.7942768
   6.7542618  46.8761444  53.0192878   6.5926037  47.1876379  54.3451130
   7.0088732  46.8700207  53.7610428  13.4827018  47.1080295  55.2155615
  13.1790155  46.5536283  55.8166023  12.7806439  47.2872505  54.7283649
  13.3343228  47.0525077  55.2325321  12.5393115  44.4180814  49.7800317
  12.8152849  43.6999727  49.3677884  13.1391784  45.0165734  49.5721423
  12.6686380  44.4001185  49.6881078  11.5445369  54.3230015  59.9227713
  11.4365724  54.3332078  60.7889771  11.7541150  55.1484796  59.7332666
  11.5595480  54.4471090  60.0231804  16.0403636  42.0894332  48.0546912
  16.4947382  42.2604892  48.7794756  16.5143681  41.4762443  47.6544687
  16.1771956  42.0245217  48.1020673   9.5619161  51.5742658  57.3849650
   8.9707094  52.2152156  57.3552665  10.3240184  51.9980275  57.3580950
   9.5867422  51.7318496  57.3764797   9.9579784  42.7344656  58.0517668
  10.4181265  42.8083585  58.7892792  10.0035890  43.5325910  57.7017489
  10.0330339  42.8638803  58.1090424  11.6063133  43.4011350  62.6189695
  11.2148699  42.7544698  63.0545473  11.7748996  43.9922786  63.2383950
  11.5734044  43.3925618  62.7752401  19.3208677  57.0251969  54.8181675
  19.1228366  57.5142784  54.1237886  18.6996388  57.2293211  55.3965808
  19.1996242  57.1268508  54.8004898  13.3816656  48.7936866  49.1591919
  14.1258700  49.1811142  49.3974869  13.5277352  47.9494292  49.3232407
  13.5127241  48.7267339  49.2185889  15.2996231  40.5887125  54.1923780
  14.4532276  40.7609933  54.0665130  15.2967363  39.7836469  54.5289609
  15.1743381  40.4948154  54.2234907  16.3694531  44.3662339  55.0585838
  15.8954486  43.8404102  55.5691149  16.7412667  43.8191812  54.4900700
  16.3544420  44.2078336  55.0500986   6.7467562  46.3633846  60.4269384
   7.6093175  46.2629555  60.3406714   6.4159345  45.7828555  59.8654956
   6.8252758  46.2625473  60.3314790  18.2978031  45.2598894  48.1211592
  17.7701050  45.3427638  47.4317301  18.7573739  46.0016766  48.1176237
  18.2879882  45.3819556  48.0186287  10.1069348  45.1876295  57.0879802
   9.4822418  45.1994687  56.4805755   9.7714942  45.6636470  57.7371042
   9.9654839  45.2594812  57.0936371  10.2911096  43.5301414  43.1452487
   9.9423901  44.1821139  43.6084037   9.8107542  43.5158527  42.4176358
  10.1681340  43.6244467  43.1063579   6.8195023  53.2476755  58.5283567
   6.2894948  52.5569194  58.5778541   7.0920116  53.2386941  57.6996275
   6.7819745  53.1443887  58.4130983  17.0201269  50.6900000  58.5021938
  16.4058262  50.1458050  58.7970573  17.5368554  50.1764236  58.0227754
  17.0056931  50.5336409  58.4746167  16.2597566  51.7604270  56.2366237
  15.8325174  51.1353989  55.8031672  16.2522510  51.4779192  57.0625244
  16.1956707  51.6257051  56.2946064   9.3760093  46.7969443  59.3054671
   9.5353580  46.0412767  59.7106393   9.1952986  47.3460383  59.9595408
   9.3725452  46.7663257  59.4617377  14.5883275  42.6373024  56.4508771
  14.6125763  42.1033137  55.7621551  14.8394749  42.1290333  57.1134361
  14.6293194  42.4833928  56.4473415   2.0990865  49.9204519  55.8851915
   1.9934314  49.8751364  55.0203999   1.3491085  50.2658300  56.1666200
   1.9726468  49.9645428  55.7989245  10.8684598  41.3643843  55.8314515
  10.9082969  41.8653049  56.5449223  10.0434262  41.4554236  55.5620438
  10.7524124  41.4525659  55.8965053  13.0514211  50.9304583  63.9334810
  12.2009841  51.0676297  64.0692455  13.2142338  50.1968361  64.3782511
  12.9498074  50.8418684  64.0190409  12.2898961  47.8804353  58.1288414
  11.4590891  48.0478171  57.9223662  12.2350478  47.5040303  58.9137299
  12.1588376  47.8494084  58.2136942  10.0982744  41.3713245  63.7644825
  10.7235448  40.8275378  64.0374257   9.6433224  40.8908163  63.1952615
  10.1231005  41.2202727  63.7206419  10.6635005  46.1559944  48.6578532
  10.8037966  46.6532408  49.3607173  11.1617538  45.4546238  48.7992745
  10.7576086  46.1261923  48.7830111  10.6935227  47.0227055  45.9871109
  11.3280307  47.6187480  45.9220570  10.7760838  46.7230513  46.8016979
  10.7991778  47.0667963  46.0974195  12.2714210  42.9541031  45.9616551
  12.5930051  42.4744113  45.3075813  12.5341154  43.7640677  45.7707362
  12.3580236  43.0030928  45.8372043  15.5011183  53.9759905  59.4815367
  14.9936274  54.5295752  59.9255997  15.2037829  54.0368195  58.6634141
  15.3816068  54.0666216  59.4263823   7.1988215  49.2194896  49.2560655
   7.7080445  49.8159403  49.6371960   7.6722487  48.9520870  48.5737074
   7.3431591  49.2680711  49.2115177  18.1118963  57.8923163  47.4119310
  17.3948273  57.7184025  46.9466548  18.7625701  57.6575735  46.8794796
  18.1020814  57.8318955  47.2648528  16.1067588  38.8128324  51.7330607
  15.4635906  38.6625971  52.3015745  15.7666995  38.5670670  50.9679711
  15.9612665  38.7540447  51.7033622  20.6966934  46.7687751  51.1560615
  20.0258124  47.3117453  51.0273681  21.3906685  47.2382606  50.9142310
  20.6995802  46.9186022  51.1016143  14.7453668  58.9084463  56.3872374
  14.5219323  58.1503292  56.7556400  14.2563511  58.9382484  55.6652813
  14.6397117  58.8006688  56.3349115   9.5578747  45.8551154  52.1233835
   8.8390736  46.2715287  52.3906699   9.9291109  46.4205393  51.5725473
   9.5070679  46.0000436  52.0816642  16.8024658  53.0766195  63.9384307
  16.7620512  52.4315872  63.3529463  17.6147976  53.0202813  64.2509719
  16.9167811  52.9725162  63.8981257  13.3932125  59.1284921  53.8409458
  12.9792524  58.4659051  53.4513300  14.0779499  59.2762780  53.3205152
  13.4330497  59.0525579  53.7065955  16.7597419  58.2875007  54.5933075
  16.3613702  58.3977277  53.8253895  16.1448639  58.4957073  55.1759635
  16.6096309  58.3348575  54.5664374  15.3325321  44.8949154  47.4607215
  14.7390161  45.2166151  46.9091782  15.3700599  44.0490250  47.2528321
  15.2499710  44.8173483  47.3489986  12.4902366  46.7063132  60.4934065
  11.9781269  46.0984315  60.8519096  12.3181862  47.4219724  60.9608041
  12.3892003  46.7226431  60.6150289   7.3368081  45.1500707  63.1436427
   7.1670671  45.8102082  62.5984633   6.8934031  45.3607268  63.8648916
   7.2467415  45.2786689  63.1698056  11.2627900  43.3905205  52.1863160
  11.7385267  43.7522285  51.5513342  10.7616500  44.0461673  52.4663303
  11.2593259  43.5399394  52.1339901  16.3671437  44.6287377  62.9336321
  16.9242867  44.4001186  62.3014786  16.0432502  45.3893042  62.6571533
  16.4017847  44.7071213  62.7992818   4.2370146  48.0547573  58.4024917
   3.6896865  47.3848218  58.5205785   5.0262524  47.6877421  58.4668384
   4.2722329  47.9012559  58.4293617  14.0854554  47.7155030  63.8988328
  14.8365881  48.0306707  64.2127882  14.2777130  47.5134201  63.0722249
  14.2245968  47.7322412  63.8231723  13.3054554  45.5346405  45.5536544
  13.6853518  45.5526034  44.7687659  12.5647150  45.9800394  45.4327392
  13.2523391  45.6028180  45.4200113   2.9957115  47.2668381  55.5570940
   2.8178876  46.8144990  56.2825855   2.7076137  48.0694542  55.7409417
   2.9270068  47.3190938  55.6914443  18.6580696  48.5226098  54.7948330
  19.1534361  47.8049093  54.7552350  17.8480472  48.2196896  54.6802817
  18.6124589  48.3723744  54.7722056  14.1039308  52.3723911  46.9445334
  13.2950630  52.0490585  46.8978644  14.6114216  51.6657133  46.8773583
  14.0588974  52.2205228  46.9275629   4.7329585  49.7996104  52.6692699
   3.8675104  49.7881795  52.5575470   4.8328401  49.6126327  53.5163838
   4.6203752  49.7702166  52.7781643  10.3586595  59.5694003  56.2422804
  10.6733154  60.3830391  56.2500586  10.7680008  59.1844222  56.9104963
  10.4654693  59.6322705  56.3426896  19.3988099  56.5965363  65.9918688
  19.5085064  55.8073924  66.3475435  19.7278996  56.5071299  65.1893026
  19.4640505  56.4671216  65.9261079  14.2280609  39.7591520  60.7684711
  14.3608515  38.9622514  61.0965687  14.6125762  40.2857923  61.3482987
  14.3036938  39.7191437  60.9028214  17.9485061  54.7781984  60.5754309
  17.4006007  54.1539867  60.3074374  18.4098089  54.9676256  59.8598388
  17.9352270  54.7141034  60.4304740  17.3012965  36.6821846  57.3665804
  16.4958928  36.5719576  57.6833643  17.1719700  36.7834302  56.5095670
  17.1633097  36.6805516  57.2873845  13.2973724  41.7607933  48.2364176
  14.1189419  41.9306246  47.9945871  12.8343375  41.9155194  47.5130474
  13.3504886  41.8089666  48.0935820  11.8869056  39.7550695  59.0162605
  12.4313469  39.4141822  59.6066946  11.9405992  40.6136157  59.1583889
  11.9758176  39.8305955  59.1244478   7.6999615  53.5167111  55.8901413
   8.3044472  53.4762946  55.2615233   7.4926927  54.3638263  55.9205468
   7.7588512  53.6355114  55.8017529  17.5143387  55.7833057  57.1063650
  18.3341761  55.6396023  57.3679945  17.2337465  56.4079255  57.6480088
  17.5940130  55.8543409  57.2251589   2.9350897  52.5001729  55.7600336
   2.8375175  51.6898000  56.0690392   3.7179767  52.4793522  55.3746604
   3.0367034  52.3768819  55.7487199  33.9857037  63.4397908  50.0706526
  33.9551042  64.2942545  50.2424796  34.5838386  63.1393201  50.6292670
  34.0694195  63.5214405  50.1781329  21.5697862  72.0636277  50.5896688
  20.8180762  71.6851815  50.3612733  22.0183874  72.0954711  49.8415499
  21.5247529  72.0121884  50.4454191  30.4950439  68.7960085  64.4319913
  31.2017206  68.3012116  64.5606847  30.6838374  69.2369166  63.7022571
  30.6278344  68.7878435  64.3428958  27.0222822  72.4861647  46.0182235
  26.6874190  73.1638568  45.5826458  27.5349692  72.0966958  45.4299107
  27.0488403  72.5286225  45.8669027  26.5627113  74.4375915  51.9593347
  26.9466492  75.0062814  51.4198122  26.4986254  73.7125426  51.4799163
  26.6100540  74.4151379  51.8087210  30.0308543  64.5865603  57.4691108
  30.5764503  65.2650690  57.5285078  29.9725420  64.4453064  56.6092690
  30.1024458  64.6657605  57.3503169  23.1482618  72.0754669  52.8559461
  23.2492981  71.2655023  53.1656589  22.5524363  71.9811616  52.2259139
  23.0755157  71.9419697  52.8085699  31.8073612  66.0150210  48.3424836
  31.6913138  66.7657896  48.7716974  32.6029499  65.7574164  48.5920923
  31.9078201  66.0885057  48.4428928  22.9883358  76.9932258  54.2574317
  23.6320813  77.4345422  54.6470475  23.3139613  76.1885685  54.1704576
  23.1315186  76.9397453  54.3019794  16.3447662  68.0974956  52.4811795
  16.1097847  67.2642608  52.3744063  16.4833303  68.3779622  51.6672995
  16.3303325  68.0158459  52.3454150  18.6437750  60.2660686  55.3796102
  18.0242782  59.6753334  55.2106117  18.5421613  60.8572122  54.7460425
  18.5375425  60.2664769  55.2601092  23.6903937  70.0044233  49.6294179
  24.0119779  70.5449441  49.0255487  24.3376034  69.4341005  49.7616468
  23.8329993  70.0003408  49.5601214  25.7405646  62.0060228  49.7128565
  26.4385810  62.1848356  50.2050029  26.0557978  61.4830568  49.0898955
  25.8900983  61.9554000  49.6930575  18.3706883  63.8112968  57.6239671
  18.2465580  64.3975414  58.2589490  19.0225167  63.3173164  57.9251946
  18.4480532  63.8251773  57.7625601  25.9293581  68.3930673  49.7008357
  26.3687216  67.7847774  50.1463130  25.7798244  68.0138047  48.9293822
  25.9715047  68.2469144  49.6527524  23.3965224  66.9874685  56.9027182
  24.0414226  66.4947128  56.5838131  23.6367001  67.1299472  57.7293261
  23.5275809  66.9352127  56.9776716  25.9351315  69.8329591  56.5534075
  26.2174558  69.0380997  56.3320831  26.6637476  70.3110178  56.5739136
  26.0840879  69.7864188  56.5237090  29.5302917  66.7457855  46.6539126
  29.4454213  67.6018821  46.7988695  30.0187301  66.4702179  47.3221285
  29.5891815  66.8315176  46.7741208  30.4621351  63.3642649  48.1536861
  29.9332822  63.5802282  48.8134167  30.9846371  64.0578787  48.0737831
  30.4609804  63.4985786  48.2392460  35.9169404  68.9388953  53.5269906
  35.0867107  69.1499597  53.6903322  35.8678656  68.1126008  53.2512189
  35.7876139  68.8478559  53.5107271  22.3520958  67.2605866  46.9544329
  21.7678174  67.7655897  47.3610193  21.9491054  67.0348252  46.2140921
  22.2060262  67.3014114  46.9049354  17.9064987  72.9760627  53.7568001
  17.4232565  73.7011116  53.7327584  18.7188305  73.2736757  53.8678158
  17.9555735  73.1262980  53.7695280  23.9779141  71.7692807  56.3617815
  23.4606083  71.4100222  55.7579123  24.6753532  71.2454982  56.3723881
  24.0044722  71.6390495  56.2748074  27.6342733  72.2187621  62.3233988
  27.7226079  72.0313762  63.1712199  28.0632446  71.5725051  61.9238835
  27.7104835  72.0950629  62.3905740  25.2013193  71.5018781  61.3051650
  24.6384028  71.0891391  61.8291312  25.9634216  71.4271687  61.7244794
  25.2307642  71.4296182  61.4444651  26.8098173  63.5071518  45.4313250
  27.0494177  63.7149501  44.6188593  27.1314014  62.7029026  45.5402194
  26.8935331  63.4185619  45.3273803  20.7609184  73.4916803  53.9088281
  21.4629764  72.9768792  53.9661037  20.6806667  73.8190954  54.7135156
  20.8532945  73.4631029  54.0361073  21.8088091  63.7292389  63.0368696
  21.9808595  63.6198284  63.8853977  22.3457448  64.3746795  62.7999888
  21.9133095  63.8084391  63.1273792  20.0859960  69.6823155  53.4173889
  20.9248859  69.9146087  53.4647650  20.1171729  68.8127466  53.3480924
  20.2141677  69.5880101  53.4138533  20.7112663  70.1024030  57.7187194
  21.2510888  69.9595161  58.3890566  20.0282609  70.5020781  58.0871220
  20.6904817  70.1403701  57.8721616  30.1353548  65.7815030  52.9132218
  30.8911063  66.2146545  52.9521127  30.2415872  65.1319800  53.4866854
  30.2623718  65.7492514  53.0030244  33.1733719  69.6088308  53.6634621
  32.7368951  69.6125050  54.4193593  32.8396634  70.2893807  53.2314199
  33.0596339  69.7100763  53.7115454  27.7462792  71.6496640  64.9877772
  28.5303209  71.7627488  65.3533514  27.5459387  70.8237778  65.1836458
  27.8328818  71.5443360  65.0712158  16.1149808  66.3224321  57.8721616
  15.8488223  65.5063437  58.0312606  16.1288372  66.3677476  57.0017131
  16.0774530  66.2081225  57.7675098  20.0207555  61.1209405  44.4873374
  19.3065732  60.8347584  44.8995806  20.5051524  61.4606031  45.1279761
  19.9866918  61.1291055  44.6429009  20.8648414  59.8602699  60.5188623
  20.1720211  59.3899679  60.7649355  21.4808742  59.6341003  61.0930330
  20.8532944  59.7569831  60.6397776  27.9033186  73.5606742  58.6344227
  27.1048432  73.3206243  58.8918096  28.3519197  73.6121135  59.3811275
  27.8507797  73.5329134  58.7829152  36.3078065  66.3269227  52.5554259
  36.9694499  65.7659896  52.4550167  35.6669477  65.8321258  52.8806950
  36.3106933  66.1705637  52.5886599  27.1954873  69.6239359  44.8635182
  27.6106021  69.2924383  44.1719678  26.3646802  69.3908261  44.7355319
  27.1342881  69.5410615  44.7426029  16.5243222  67.1083100  55.1533360
  16.3418795  67.0829986  54.3005652  17.2592890  67.5782038  55.1922269
  16.6057285  67.1744462  55.0331278  32.5942896  67.3434610  52.2966247
  32.8298485  67.4879809  51.4693098  32.7432459  68.1077018  52.6897761
  32.6508699  67.4773664  52.2329851  19.5888973  63.8268103  61.6615469
  20.3128946  63.8121133  62.1480363  19.6905110  64.5363458  61.1637437
  19.7107182  63.9292806  61.6594255  34.4233352  66.1836276  50.1335851
  34.7541570  66.7163916  49.5275946  34.9966441  66.2375164  50.7897802
  34.5567032  66.2705845  50.1413633  26.9633923  67.3067187  66.5264416
  26.1706903  67.6210699  66.7117035  27.0782850  67.5218656  65.6885200
  26.8629333  67.3851024  66.4302750  29.6365242  64.0301179  50.8159431
  29.7312096  64.7690473  51.2699057  29.0124085  63.6018654  51.2493996
  29.5574272  64.0762499  50.9467579  27.8917715  67.2087391  61.4649712
  28.4656577  66.5714635  61.6198276  27.8132519  67.2091474  60.5959370
  27.9650950  67.1152503  61.3596123  16.4914132  63.9876601  55.3032426
  17.0687634  63.8513051  55.9424672  15.7928194  63.5312385  55.5578011
  16.4735153  63.8998867  55.4354716  29.8888263  65.8749918  44.0496383
  29.8068425  65.9452105  44.9151370  30.5267983  66.4379662  43.8580124
  29.9708100  65.9688889  44.1486333  23.2481434  65.6410656  53.5170910
  22.9900678  64.8082391  53.4902209  23.3029917  65.8668269  52.6763410
  23.2181212  65.5508428  53.3891046  22.2216146  63.1948419  54.0035804
  21.6465737  63.3540587  54.6399765  21.8451822  62.5583828  53.5404255
  22.0818959  63.1246232  54.0290363  25.8889435  61.6671768  58.8628183
  25.5003868  61.2425986  58.2080374  25.2244133  61.9153918  59.3705209
  25.7336363  61.6410489  58.8416051  11.9672965  62.8388494  52.0180245
  12.0533217  62.4620362  52.7993775  12.5948763  62.4648939  51.5400203
  12.0729516  62.7273976  52.0625722  26.9928373  65.8970373  47.0604990
  27.8069012  66.1885265  46.9487761  26.9287514  65.2430235  46.4863283
  27.1031112  65.8435567  46.9593827  33.2137863  68.5796369  61.4734565
  32.9776501  67.7484434  61.3546626  33.8581092  68.5281976  62.0589410
  33.2732534  68.4494057  61.5420459  22.8636281  69.3691890  52.1877302
  23.5010228  69.1303638  52.7329095  23.2891353  69.5729049  51.4530463
  23.0212448  69.3642900  52.1594459  17.5548924  71.6080227  56.0711606
  17.5953069  71.8795078  55.2431385  18.1143448  72.1322135  56.4869394
  17.6432270  71.7255982  56.0103494  23.5039096  64.5894180  46.5252191
  23.8884249  64.3701887  47.2768736  23.2550717  65.4157125  46.6553268
  23.5241169  64.6792326  46.6553268  34.2374284  68.3640818  57.5362860
  33.9320101  69.0968874  57.8976176  33.5180500  67.9578747  57.2555646
  34.0861626  68.4122551  57.5475997  25.2457753  69.8464313  53.8671088
  25.3196762  69.6839485  54.7212938  26.0627260  70.0354502  53.6231570
  25.3774112  69.8501055  53.9569114  39.9376076  65.0033818  56.8631204
  39.8700576  65.0229777  55.9933791  39.9231738  65.8464145  57.0886875
  39.9254832  65.1307553  56.7683681  19.0063510  70.1922176  50.8965532
  18.1801628  70.4383913  50.7699810  19.0675501  70.1134256  51.7627590
  18.8937677  70.2167125  51.0054476  23.7862339  72.8099056  48.5984562
  24.0760637  72.4188037  47.8743788  24.5165820  72.9915761  49.0389837
  23.9369223  72.7792870  48.5567369  37.7234693  63.7778204  55.1377799
  38.2742615  63.1446273  55.3774891  37.7078809  64.3093597  55.8293303
  37.8019890  63.7627153  55.2756657  24.3757084  67.6116802  59.6837692
  23.8768778  68.3232569  59.7622581  25.1857308  67.9317468  59.6455854
  24.4213191  67.7643650  59.6894261  21.7268255  74.7866438  51.6644711
  21.5068550  74.4963793  52.4571378  21.5062777  74.1281393  51.1362624
  21.6615849  74.6466147  51.7033620  20.6385202  66.8739755  53.9300413
  20.3498450  66.2477226  54.4646140  21.5068550  66.8160042  53.9965093
  20.7245454  66.7727299  54.0191368  23.8936210  76.1595828  50.4475404
  24.5460268  75.6272270  50.6766430  23.1961819  75.8064480  50.8343278
  23.8866928  76.0285351  50.5387571  20.8417475  68.5135006  49.8542778
  21.5963443  68.8948045  50.0678241  20.2488088  68.9646149  50.3089475
  20.8654189  68.6363833  49.9525656  31.8876129  68.4800242  49.7906383
  32.4534161  69.1393452  49.7064926  31.2404032  68.8249940  50.2622785
  31.8754885  68.6282183  49.8479139  23.3024142  60.4697846  64.9799990
  22.4923918  60.7755626  64.8689833  23.7798829  61.1903428  65.0952574
  23.2527621  60.6212447  64.9807061  22.1615702  69.6843567  55.2282893
  21.6396455  69.8243859  55.9134758  22.5489722  68.9254231  55.4185011
  22.1419403  69.5929091  55.3583970  19.1506886  59.7349376  49.2977848
  18.8631682  59.3650646  48.5609795  19.8377354  60.2044231  49.0361553
  19.2095783  59.7496345  49.1492924  28.3582707  71.4239026  49.2143462
  28.1169383  70.6906887  48.8070527  28.5384040  71.9725883  48.5609795
  28.3490331  71.3961417  49.0573685  23.5882027  66.7147586  50.6264384
  23.3924810  67.3222321  50.0324687  23.8116373  66.0215530  50.1456058
  23.5916668  66.7025112  50.4680465  21.9860557  63.6002324  50.7445253
  22.7083209  63.7643482  50.2849059  21.5068550  64.3211989  50.6384593
  22.0224288  63.7300554  50.6610867  19.6368174  66.0060396  59.8499393
  20.1489271  66.2844650  59.2008152  19.3504517  66.7449690  60.2162206
  19.6703037  66.1562750  59.8089271  33.8211589  65.1434110  53.4103180
  33.7345563  65.2989536  54.2637958  33.3662069  65.7872185  53.0362585
  33.7414845  65.2609865  53.4810286  16.7235080  60.5130588  50.1463129
  16.8251217  61.3156750  50.4744105  17.5190967  60.3117924  49.8486210
  16.8562986  60.6016487  50.1498485  17.5398813  60.6277766  57.8884251
  17.3984304  59.7761707  58.0128759  17.8239376  60.6706427  57.0646457
  17.5606659  60.5077517  57.7851875  27.6937405  62.4644857  52.0328739
  27.4472119  62.3840608  52.8665528  28.0222528  61.6798325  51.8391267
  27.7058648  62.3371122  52.1276262  31.5885454  69.1728216  55.8215520
  31.4499813  69.8709262  56.3264263  30.8085452  69.0176873  55.4651702
  31.4528681  69.2528383  55.8441794  29.9263539  65.4724591  62.0737902
  29.9211577  64.6004408  62.0780328  30.6324533  65.6712761  61.6007358
  30.0308543  65.3728466  62.0044937  23.6534432  65.2001575  61.4451722
  23.7977808  65.7802783  60.8094832  24.0010081  65.5777872  62.1501577
  23.7261894  65.3422279  61.4550717  25.8254350  64.3991744  59.2276854
  25.0777664  64.5922758  58.8225132  25.9795875  63.5736963  58.9900975
  25.7376777  64.3056855  59.1322260  22.7262187  73.3904347  58.3112749
  22.8751751  72.8307263  57.6586153  23.5062189  73.4696349  58.6945268
  22.8636281  73.3189913  58.2709698  33.0838827  68.5306470  46.5832019
  32.7045635  67.7443608  46.5761309  32.4205072  69.0793327  46.4403664
  32.9297301  68.4951294  46.5612816  25.2515488  73.5618990  59.5897240
  25.1759159  72.8927801  60.1448028  25.1805347  74.2636778  60.1037906
  25.2296095  73.5663897  59.7474088  18.3089118  58.5408114  61.2061701
  17.7731307  57.9288472  61.5222468  18.3706883  59.1156250  61.8595368
  18.2384750  58.5355042  61.3497128  25.9085735  72.0819989  50.4220846
  26.6735626  71.8129633  50.1003510  25.8063825  71.5969999  51.1390908
  26.0067230  71.9709554  50.4800673  28.4304395  69.1132173  42.4020795
  29.1977380  69.1732298  41.9926647  27.9835704  68.5412614  41.9177114
  28.4777822  69.0368748  42.2698505  29.3282191  67.9186828  54.6873527
  28.6527193  67.6872061  55.1886914  29.3374567  67.3108011  54.0615632
  29.2300695  67.7945754  54.6689680  26.4576335  62.7604657  61.4437580
  26.3935476  63.6214614  61.3157717  26.5973522  62.4436651  60.6433132
  26.4691805  62.8404824  61.3065793  31.3298925  70.7751961  46.9183705
  31.4118763  71.5818947  46.5945156  31.8148668  70.7947920  47.6424479
  31.4136083  70.8972623  46.9770604  25.1395429  65.4536797  55.5853783
  24.7157678  65.6541296  54.8492802  24.9640284  64.6065645  55.6978083
  25.0506309  65.3585578  55.4927473  24.6407122  76.9687310  58.0475241
  25.1303052  76.2698099  57.8650905  24.0691354  76.6711180  58.6351298
  24.6291652  76.8213533  58.1076281  20.4277874  65.9488848  51.0181756
  20.5842493  65.8835651  51.8737748  20.7678467  66.7237401  50.8060435
  20.5011108  66.0538046  51.1136350  26.9657018  65.3246732  49.8875119
  27.5072564  64.8217113  50.3513740  27.2803577  65.2711926  49.0764604
  27.0921415  65.2426153  49.8358931  30.8374126  69.5349379  67.0002031
  31.6508991  69.2634528  67.1607164  30.6769092  69.2356919  66.1962227
  30.9344074  69.4504305  66.9047437  25.1343468  70.7164083  47.1715147
  25.2036288  69.8578622  47.3108147  25.9131923  70.9335964  46.8434172
  25.2596318  70.6216947  47.1432304  29.5250956  73.1401785  51.3851640
  29.1330747  72.8368500  50.6674506  29.6804028  73.9770875  51.1956594
  29.4904545  73.2185621  51.2508137  29.6890630  69.7051773  51.3257671
  29.3305285  69.8766416  52.1021703  29.2029341  70.1664979  50.7685669
  29.5649327  69.7990745  51.3582940  24.4778996  65.3850939  43.8657905
  24.7671521  66.1615821  44.1401480  24.5650795  64.8739670  44.5672405
  24.5333252  65.4242857  44.0100403  27.3738883  63.2332173  65.6609429
  27.8438514  63.8574289  66.0477303  27.4200763  62.5649148  66.2202644
  27.4506759  63.2266853  65.8009500  30.8495370  70.5955669  62.2724872
  31.4875090  70.1015865  61.9387328  30.2069461  70.5233070  61.6877099
  30.8489596  70.5114678  62.1367227  30.9049626  71.2875478  58.9130229
  31.6942004  70.9364542  59.0332310  31.0793224  72.1011866  58.6506862
  31.0469908  71.3561335  58.8918097  20.6442937  64.6984203  55.9658017
  19.8030943  64.5988078  56.1736911  20.8532945  65.4679684  56.3172338
  20.5507629  64.7976247  56.0485332  18.1218504  62.3203740  53.7942768
  17.7275201  62.3946752  53.0192878  17.5658620  62.7061687  54.3451130
  17.9821316  62.3885515  53.7610428  24.4559602  62.6265603  55.2155615
  24.1522739  62.0721591  55.8166023  23.7539022  62.8057813  54.7283649
  24.3075811  62.5710385  55.2325321  22.5177953  69.8415323  59.9227713
  22.4098307  69.8517385  60.7889771  22.7273734  70.6670104  59.7332666
  22.5328064  69.9656398  60.0231804  20.5351745  67.0927966  57.3849650
  19.9439678  67.7337464  57.3552665  21.2972768  67.5165583  57.3580950
  20.5600005  67.2503804  57.3764797  20.9312367  58.2529963  58.0517668
  21.3913849  58.3268893  58.7892792  20.9768474  59.0511218  57.7017489
  21.0062923  58.3824111  58.1090424  22.5795717  58.9196658  62.6189695
  22.1881282  58.2730005  63.0545473  22.7481580  59.5108094  63.2383950
  22.5466627  58.9110926  62.7752401  36.6542166  66.9233735  58.3826929
  36.7125290  67.3720384  59.1286905  36.0208634  67.3332548  57.9457009
  36.5693461  67.0507470  58.4279477  30.2941261  72.5437277  54.8181675
  30.0960949  73.0328092  54.1237886  29.6728972  72.7478519  55.3965808
  30.1728825  72.6453816  54.8004898  24.3549239  64.3122174  49.1591919
  25.0991284  64.6996450  49.3974869  24.5009935  63.4679599  49.3232407
  24.4859824  64.2452647  49.2185889  17.7200145  61.8819154  60.4269384
  18.5825758  61.7814863  60.3406714  17.3891928  61.3013863  59.8654956
  17.7985341  61.7810781  60.3314790  33.6063846  64.9450023  56.4692619
  33.3662068  64.1056438  56.4735045  34.0855853  65.0250190  57.1933392
  33.6416029  64.8331423  56.5767421  29.2710615  60.7784202  48.1211592
  28.7433633  60.8612946  47.4317301  29.7306323  61.5202073  48.1176237
  29.2612465  60.9004864  48.0186287  32.2115063  66.1101430  60.3526923
  32.9349262  65.6573956  60.1737943  31.9465025  66.3906095  59.5699251
  32.2796336  66.0852398  60.2105638  21.0801931  60.7061603  57.0879802
  20.4555001  60.7179995  56.4805755  20.7447526  61.1821778  57.7371042
  20.9387423  60.7780120  57.0936371  21.2643680  59.0486722  43.1452487
  20.9156484  59.7006447  43.6084037  20.7840126  59.0343835  42.4176358
  21.1413924  59.1429775  43.1063579  17.7927607  68.7662063  58.5283567
  17.2627531  68.0754502  58.5778541  18.0652700  68.7572249  57.6996275
  17.7552329  68.6629195  58.4130983  28.8247697  69.3487766  47.2521249
  29.5481896  69.8145879  47.1085822  28.3848288  69.4161375  46.5018846
  28.8663389  69.4271602  47.1206031  27.9933852  66.2085308  58.5021938
  27.3790845  65.6643358  58.7970573  28.5101137  65.6949544  58.0227754
  27.9789515  66.0521717  58.4746167  27.2330149  67.2789578  56.2366237
  26.8057757  66.6539297  55.8031672  27.2255094  66.9964500  57.0625244
  27.1689291  67.1442359  56.2946064  20.3492676  62.3154751  59.3054671
  20.5086163  61.5598075  59.7106393  20.1685570  62.8645690  59.9595408
  20.3458035  62.2848565  59.4617377  13.0723449  65.4389827  55.8851915
  12.9666898  65.3936672  55.0203999  12.3223669  65.7843608  56.1666200
  12.9459052  65.4830736  55.7989245  24.0246794  66.4489891  63.9334810
  23.1742425  66.5861605  64.0692455  24.1874922  65.7153669  64.3782511
  23.9230658  66.3603992  64.0190409  23.2631545  63.3989660  58.1288414
  22.4323474  63.5663478  57.9223662  23.2083062  63.0225611  58.9137299
  23.1320960  63.3679392  58.2136942  21.0715328  56.8898553  63.7644825
  21.6968031  56.3460686  64.0374257  20.6165808  56.4093471  63.1952615
  21.0963589  56.7388035  63.7206419  21.6367588  61.6745252  48.6578532
  21.7770550  62.1717716  49.3607173  22.1350121  60.9731546  48.7992745
  21.7308669  61.6447231  48.7830111  21.6667811  62.5412363  45.9871109
  22.3012890  63.1372788  45.9220570  21.7493422  62.2415821  46.8016979
  21.7724362  62.5853271  46.0974195  34.6450377  65.0727840  58.8557473
  35.2368217  65.7125091  58.8875671  35.0809371  64.3750877  59.1449540
  34.7968808  65.0646191  58.9038305  26.4743767  69.4945213  59.4815367
  25.9668858  70.0481060  59.9255997  26.1770413  69.5553503  58.6634141
  26.3548651  69.5851524  59.4263823  18.1720799  64.7380204  49.2560655
  18.6813028  65.3344711  49.6371960  18.6455071  64.4706177  48.5737074
  18.3164174  64.7866019  49.2115177  29.0851547  73.4108471  47.4119310
  28.3680857  73.2369333  46.9466548  29.7358284  73.1761043  46.8794796
  29.0753397  73.3504263  47.2648528  31.6699518  62.2873059  51.1560615
  30.9990708  62.8302761  51.0273681  32.3639268  62.7567914  50.9142310
  31.6728386  62.4371330  51.1016143  25.7186252  74.4269771  56.3872374
  25.4951906  73.6688600  56.7556400  25.2296095  74.4567792  55.6652813
  25.6129701  74.3191996  56.3349115  20.5311330  61.3736462  52.1233835
  19.8123320  61.7900595  52.3906699  20.9023693  61.9390701  51.5725473
  20.4803262  61.5185744  52.0816642  27.7757241  68.5951503  63.9384307
  27.7353096  67.9501180  63.3529463  28.5880559  68.5388121  64.2509719
  27.8900395  68.4910470  63.8981257  24.3664709  74.6470229  53.8409458
  23.9525107  73.9844359  53.4513300  25.0512083  74.7948088  53.3205152
  24.4063080  74.5710887  53.7065955  27.7330003  73.8060314  54.5933075
  27.3346286  73.9162585  53.8253895  27.1181222  74.0142381  55.1759635
  27.5828892  73.8533882  54.5664374  29.1815721  60.3713967  50.8908965
  28.9529414  60.3946668  50.0487323  29.4413798  59.5471434  51.0103975
  29.1861909  60.2530047  50.7834162  23.4634950  62.2248440  60.4934065
  22.9513853  61.6169623  60.8519096  23.2914446  62.9405032  60.9608041
  23.3624587  62.2411739  60.6150289  18.3100665  60.6686015  63.1436427
  18.1403255  61.3287390  62.5984633  17.8666614  60.8792576  63.8648916
  18.2199998  60.7971997  63.1698056  22.2360484  58.9090513  52.1863160
  22.7117850  59.2707593  51.5513342  21.7349084  59.5646981  52.4663303
  22.2325843  59.0584702  52.1339901  15.2102729  63.5732881  58.4024917
  14.6629449  62.9033526  58.5205785  15.9995107  63.2062729  58.4668384
  15.2454913  63.4197867  58.4293617  25.0587137  63.2340338  63.8988328
  25.8098464  63.5492015  64.2127882  25.2509714  63.0319509  63.0722249
  25.1978552  63.2507720  63.8231723  24.2787137  61.0531713  45.5536544
  24.6586102  61.0711342  44.7687659  23.5379733  61.4985702  45.4327392
  24.2255975  61.1213487  45.4200113  13.9689699  62.7853688  55.5570940
  13.7911460  62.3330297  56.2825855  13.6808721  63.5879850  55.7409417
  13.9002652  62.8376246  55.6914443  29.6313280  64.0411406  54.7948330
  30.1266945  63.3234401  54.7552350  28.8213055  63.7382204  54.6802817
  29.5857173  63.8909052  54.7722056  25.0771891  67.8909219  46.9445334
  24.2683214  67.5675893  46.8978644  25.5846800  67.1842441  46.8773583
  25.0321558  67.7390535  46.9275629  15.7062168  65.3181412  52.6692699
  14.8407688  65.3067103  52.5575470  15.8060984  65.1311635  53.5163838
  15.5936335  65.2887473  52.7781643  31.6965099  66.7915093  57.4825459
  32.1220170  66.2689515  56.9295884  31.3322018  67.3895931  56.9614082
  31.7051701  66.8025320  57.3234468  21.3319178  75.0879311  56.2422804
  21.6465737  75.9015699  56.2500586  21.7412592  74.7029530  56.9104963
  21.4387276  75.1508013  56.3426896  28.2843698  70.5049358  53.8126616
  28.7554876  71.2189620  53.9816601  28.6203877  69.9048108  54.3486486
  28.4038813  70.5220822  53.9158992  30.3720683  72.1150671  65.9918688
  30.4817648  71.3259232  66.3475435  30.7011579  72.0256607  65.1893026
  30.4373088  71.9856524  65.9261079  28.9217644  70.2967292  60.5754309
  28.3738590  69.6725175  60.3074374  29.3830673  70.4861564  59.8598388
  28.9084854  70.2326342  60.4304740  18.6732198  69.0352419  55.8901413
  19.2777056  68.9948253  55.2615233  18.4659511  69.8823571  55.9205468
  18.7321096  69.1540422  55.8017529  28.4875971  71.3018364  57.1063650
  29.3074344  71.1581331  57.3679945  28.2070048  71.9264563  57.6480088
  28.5672714  71.3728717  57.2251589  13.9083481  68.0187037  55.7600336
  13.8107759  67.2083308  56.0690392  14.6912350  67.9978830  55.3746604
  14.0099617  67.8954127  55.7487199  44.9589621  78.9583216  50.0706526
  44.9283625  79.8127853  50.2424796  45.5570970  78.6578509  50.6292670
  45.0426779  79.0399713  50.1781329  38.1589306  78.0458867  54.8259457
  37.3027201  78.2067365  54.8768574  38.2056960  77.1750931  54.8464518
  38.0388417  77.9409669  54.8365523  41.4683022  84.3145393  64.4319913
  42.1749790  83.8197424  64.5606847  41.6570958  84.7554474  63.7022571
  41.6010928  84.3063743  64.3428958  41.0041127  80.1050911  57.4691108
  41.5497087  80.7835998  57.5285078  40.9458003  79.9638372  56.6092690
  41.0757041  80.1842913  57.3503169  42.7806196  81.5335518  48.3424836
  42.6645721  82.2843204  48.7716974  43.5762082  81.2759471  48.5920923
  42.8810785  81.6070365  48.4428928  29.6170333  75.7845994  55.3796102
  28.9975365  75.1938642  55.2106117  29.5154197  76.3757430  54.7460425
  29.5108009  75.7850077  55.2601092  36.7138229  77.5245536  49.7128565
  37.4118394  77.7033664  50.2050029  37.0290562  77.0015876  49.0898955
  36.8633566  77.4739308  49.6930575  29.3439466  79.3298276  57.6239671
  29.2198163  79.9160722  58.2589490  29.9957751  78.8358472  57.9251946
  29.4213116  79.3437081  57.7625601  34.3697807  82.5059993  56.9027182
  35.0146810  82.0132436  56.5838131  34.6099585  82.6484780  57.7293261
  34.5008393  82.4537435  56.9776716  34.8865093  72.8937933  53.7949840
  34.5568423  73.3449076  53.1253539  34.2110094  72.8154096  54.3422846
  34.7375529  72.9489068  53.7773063  40.5035501  82.2643162  46.6539126
  40.4186796  83.1204129  46.7988695  40.9919884  81.9887487  47.3221285
  40.5624398  82.3500484  46.7741208  42.0941500  68.8823456  52.0399451
  41.7794941  69.5726934  52.4719873  41.5768442  68.8268238  51.3384951
  41.9705971  68.9758344  51.9996400  41.4353934  78.8827957  48.1536861
  40.9065406  79.0987590  48.8134167  41.9578954  79.5764095  48.0737831
  41.4342387  79.0171094  48.2392460  46.8901987  84.4574261  53.5269906
  46.0599690  84.6684905  53.6903322  46.8411239  83.6311316  53.2512189
  46.7608723  84.3663867  53.5107271  37.7830756  79.0256826  45.4313250
  38.0226760  79.2334809  44.6188593  38.1046597  78.2214334  45.5402194
  37.8667914  78.9370927  45.3273803  33.0921047  70.9550221  49.2772788
  33.8467015  71.3228538  49.0389838  32.9148581  71.3289776  50.0451967
  33.1775525  71.0648409  49.3557676  46.3855945  77.1044662  57.3220327
  45.5484367  77.1746849  57.5567921  46.3544176  77.1069157  56.4494629
  46.2574228  77.1154889  57.2279875  32.7820674  79.2477697  63.0368696
  32.9541178  79.1383592  63.8853977  33.3190032  79.8932103  62.7999888
  32.8865678  79.3269699  63.1273792  31.4478111  73.3620540  45.9750901
  31.2653685  73.5792421  45.1491893  32.3103724  73.4759553  46.0309515
  31.5482701  73.4110438  45.8605388  37.1277831  70.3646951  49.0099924
  37.8563991  70.1862906  48.5638081  37.2172723  71.2065031  49.2207103
  37.2484493  70.4630829  48.9753442  41.1086131  81.3000338  52.9132218
  41.8643646  81.7331853  52.9521127  41.2148456  80.6505108  53.4866854
  41.2356302  81.2677822  53.0030244  44.1466302  85.1273616  53.6634621
  43.7101534  85.1310358  54.4193593  43.8129218  85.8079115  53.2314199
  44.0328922  85.2286071  53.7115454  44.0663785  72.1687443  55.9064049
  44.7089694  72.2385548  56.4925965  44.3186806  71.5016666  55.4043591
  44.1985917  72.0813792  55.9191329  30.9940138  76.6394713  44.4873374
  30.2798316  76.3532892  44.8995806  31.4784107  76.9791339  45.1279761
  30.9599502  76.6476363  44.6429009  31.8380998  75.3788007  60.5188623
  31.1452795  74.9084986  60.7649355  32.4541325  75.1526311  61.0930330
  31.8265528  75.2755139  60.6397776  47.2810649  81.8454535  52.5554259
  47.9427083  81.2845204  52.4550167  46.6402061  81.3506566  52.8806950
  47.2839516  81.6890944  52.5886599  43.5675479  82.8619918  52.2966247
  43.8031068  83.0065117  51.4693098  43.7165043  83.6262326  52.6897761
  43.6241283  82.9958972  52.2329851  30.5621557  79.3453411  61.6615469
  31.2861529  79.3306441  62.1480363  30.6637693  80.0548766  61.1637437
  30.6839766  79.4478114  61.6594255  45.3965936  81.7021584  50.1335851
  45.7274153  82.2349224  49.5275946  45.9699024  81.7560472  50.7897802
  45.5299615  81.7891153  50.1413633  37.9366506  82.8252495  66.5264416
  37.1439487  83.1396007  66.7117035  38.0515433  83.0403964  65.6885200
  37.8361917  82.9036332  66.4302750  40.6097825  79.5486486  50.8159431
  40.7044680  80.2875781  51.2699057  39.9856669  79.1203962  51.2493996
  40.5306855  79.5947807  50.9467579  38.8650299  82.7272699  61.4649712
  39.4389161  82.0899943  61.6198276  38.7865103  82.7276782  60.5959370
  38.9383534  82.6337810  61.3596123  27.4646715  79.5061909  55.3032426
  28.0420218  79.3698359  55.9424672  26.7660777  79.0497693  55.5578011
  27.4467737  79.4184175  55.4354716  40.8620846  81.3935226  44.0496383
  40.7801009  81.4637413  44.9151370  41.5000567  81.9564970  43.8580124
  40.9440684  81.4874197  44.1486333  34.2214018  81.1595964  53.5170910
  33.9633262  80.3267699  53.4902209  34.2762500  81.3853577  52.6763410
  34.1913795  81.0693735  53.3891046  33.1948730  78.7133727  54.0035804
  32.6198321  78.8725895  54.6399765  32.8184406  78.0769136  53.5404255
  33.0551542  78.6431540  54.0290363  36.8622018  77.1857076  58.8628183
  36.4736451  76.7611294  58.2080374  36.1976717  77.4339226  59.3705209
  36.7068946  77.1595797  58.8416051  46.5045288  76.9432081  51.6376013
  46.2481852  76.1312022  51.4473896  47.3474602  76.9509648  51.4106200
  46.5911313  76.8244078  51.5760830  22.9405549  78.3573801  52.0180245
  23.0265800  77.9805670  52.7993775  23.5681346  77.9834247  51.5400203
  23.0462100  78.2459284  52.0625722  40.6848380  70.8831705  56.3752167
  41.0658892  70.2009876  56.7620041  39.8811664  70.5941307  56.1927832
  40.6224842  70.7398753  56.4056223  37.9660957  81.4155681  47.0604990
  38.7801595  81.7070573  46.9487761  37.9020098  80.7615543  46.4863283
  38.0763696  81.3620875  46.9593827  44.1870447  84.0981677  61.4734565
  43.9509084  83.2669741  61.3546626  44.8313676  84.0467284  62.0589410
  44.2465118  83.9679365  61.5420459  34.4771680  80.1079488  46.5252191
  34.8616833  79.8887195  47.2768736  34.2283300  80.9342433  46.6553268
  34.4973753  80.1977634  46.6553268  34.6440220  73.3885903  66.2414776
  34.3293661  74.1585466  65.9784338  34.3230153  72.8256159  65.6567002
  34.5499139  73.4196172  66.1156125  45.2106867  83.8826125  57.5362860
  44.9052685  84.6154182  57.8976176  44.4913083  83.4764055  57.2555646
  45.0594210  83.9307858  57.5475997  50.9108660  80.5219126  56.8631204
  50.8433160  80.5415085  55.9933791  50.8964322  81.3649453  57.0886875
  50.8987416  80.6492861  56.7683681  32.1972117  71.7776424  51.8560972
  31.3294543  71.8499024  51.9218581  32.4847322  72.5798503  52.0448947
  32.1111865  71.9070572  51.8935738  41.3205006  71.9254284  60.1872294
  42.0658598  71.7364094  59.7735719  40.9042311  72.4512522  59.6286150
  41.3689980  71.9756429  60.0436867  48.6967277  79.2963512  55.1377799
  49.2475198  78.6631581  55.3774891  48.6811392  79.8278905  55.8293303
  48.7752473  79.2812460  55.2756657  42.3995683  77.5359846  54.2482395
  42.0560449  76.8150181  54.5989644  42.4988726  77.3273697  53.4060753
  42.3637726  77.3984049  54.1754075  42.8608712  83.9985550  49.7906383
  43.4266745  84.6578760  49.7064926  42.2136616  84.3435248  50.2622785
  42.8487469  84.1467491  49.8479139  34.2756726  75.9883154  64.9799990
  33.4656502  76.2940934  64.8689833  34.7531412  76.7088736  65.0952574
  34.2260205  76.1397755  64.9807061  30.1239469  75.2534684  49.2977848
  29.8364265  74.8835954  48.5609795  30.8109938  75.7229539  49.0361553
  30.1828367  75.2681653  49.1492924  32.9593141  79.1187632  50.7445253
  33.6815793  79.2828790  50.2849059  32.4801134  79.8397297  50.6384593
  32.9956872  79.2485862  50.6610867  40.9186649  75.4551431  56.1241938
  40.0797749  75.4812710  55.8880201  40.9891016  76.1022166  56.7047284
  40.8055042  75.5547557  56.1751055  39.3655927  72.3536808  50.8569554
  40.0682280  72.1544556  50.3789512  39.1000116  71.5812750  51.1638397
  39.4302559  72.2099774  50.8314995  44.7944172  80.6619418  53.4103180
  44.7078147  80.8174844  54.2637958  44.3394652  81.3057493  53.0362585
  44.7147429  80.7795173  53.4810286  27.6967664  76.0315896  50.1463129
  27.7983800  76.8342058  50.4744105  28.4923551  75.8303232  49.8486210
  27.8295570  76.1201795  50.1498485  34.1284483  73.6172093  59.9100434
  33.9367680  73.6327227  60.7599858  34.9783079  73.8135767  59.8867089
  34.2260205  73.6486444  60.0323729  28.5131396  76.1463074  57.8884251
  28.3716888  75.2947015  58.0128759  28.7971959  76.1891735  57.0646457
  28.5339242  76.0262824  57.7851875  38.6669988  77.9830165  52.0328739
  38.4204703  77.9025916  52.8665528  38.9955112  77.1983632  51.8391267
  38.6791232  77.8556430  52.1276262  42.5618037  84.6913524  55.8215520
  42.4232397  85.3894570  56.3264263  41.7818035  84.5362180  55.4651702
  42.4261264  84.7713691  55.8441794  40.8996122  80.9909899  62.0737902
  40.8944161  80.1189716  62.0780328  41.6057116  81.1898068  61.6007358
  41.0041126  80.8913774  62.0044937  34.6267016  80.7186883  61.4451722
  34.7710391  81.2988091  60.8094832  34.9742664  81.0963180  62.1501577
  34.6994477  80.8607587  61.4550717  36.7986933  79.9177052  59.2276854
  36.0510247  80.1108066  58.8225132  36.9528458  79.0922271  58.9900975
  36.7109361  79.8242163  59.1322260  44.0571410  84.0491778  46.5832019
  43.6778219  83.2628916  46.5761309  43.3937656  84.5978635  46.4403664
  43.9029885  84.0136602  46.5612816  37.0388710  73.8127602  60.1172257
  37.4961324  74.5451577  60.2445050  37.1145039  73.3894068  60.8759513
  37.1179680  73.8584840  60.2473334  29.2821701  74.0593422  61.2061701
  28.7463891  73.4473780  61.5222468  29.3439466  74.6341558  61.8595368
  29.2117334  74.0540350  61.3497128  41.5116036  66.9917478  53.9866100
  41.6299604  67.4493941  53.2533403  41.3378212  66.1862739  53.7002318
  41.5035207  66.9411250  53.8367034  34.9171088  75.8029706  56.9614081
  34.1267163  75.6221166  57.2831417  35.3131711  75.0256659  56.9444376
  34.8587964  75.6617167  57.0066630  40.3014774  83.4372136  54.6873527
  39.6259776  83.2057369  55.1886914  40.3107150  82.8293319  54.0615632
  40.2033279  83.3131062  54.6689680  37.4308918  78.2789965  61.4437580
  37.3668060  79.1399922  61.3157717  37.5706106  77.9621959  60.6433132
  37.4424388  78.3590132  61.3065793  36.1128012  80.9722105  55.5853783
  35.6890261  81.1726604  54.8492802  35.9372867  80.1250953  55.6978083
  36.0238893  80.8770886  55.4927473  37.9389602  80.8432040  49.8875119
  38.4805147  80.3402421  50.3513740  38.2536161  80.7897234  49.0764604
  38.0653999  80.7611461  49.8358931  41.8106709  85.0534687  67.0002031
  42.6241574  84.7819836  67.1607164  41.6501676  84.7542227  66.1962227
  41.9076658  84.9689613  66.9047437  39.0878871  75.7368344  59.9397419
  39.3020841  75.0979258  59.3860773  38.4712770  76.1814168  59.5105281
  39.0284200  75.7078488  59.7947851  27.9744719  78.6509107  51.3342523
  28.3543684  79.0693652  50.6702790  27.4000083  79.2322562  51.6411366
  27.9456044  78.7986965  51.2819264  41.2517959  77.3457409  60.8780727
  40.4394641  77.0383300  60.9593899  41.7107894  76.8656410  61.4423439
  41.1998344  77.2293902  60.9735321  38.4793600  68.8468280  54.9284762
  37.6087158  68.8207001  54.8818072  38.7333941  68.6745472  54.1110608
  38.3887160  68.8178424  54.8004899  35.4511579  80.9036247  43.8657905
  35.7404104  81.6801129  44.1401480  35.5383378  80.3924978  44.5672405
  35.5065836  80.9428165  44.0100403  38.3471467  78.7517481  65.6609429
  38.8171098  79.3759597  66.0477303  38.3933347  78.0834456  66.2202644
  38.4239343  78.7452161  65.8009500  35.5042740  70.8574508  56.3858233
  34.9881229  70.1654700  56.5109812  34.9436669  71.5245285  56.3320831
  35.3449254  70.8537766  56.3964299  37.5734974  71.3967468  58.2151085
  37.1866727  71.4216500  58.9964615  37.0867911  70.8309147  57.7625602
  37.4447483  71.3163219  58.2638989  43.5484953  77.9630123  56.8390787
  43.1212561  77.8756472  56.0838887  42.9111006  78.0707899  57.4245631
  43.3914561  77.9662783  56.8136229  37.2392116  68.2834454  60.5061345
  37.8685233  68.8194754  60.2282415  37.4077978  68.1911813  61.3574911
  37.3569910  68.3495816  60.5909873  37.0406030  73.0705649  62.7787757
  37.8679460  72.7990797  62.8346371  37.0613876  73.8666490  63.1351575
  37.1658880  73.1485403  62.8402940  31.6175520  80.2169511  55.9658017
  30.7763527  80.1173386  56.1736911  31.8265528  80.9864992  56.3172338
  31.5240213  80.3161555  56.0485332  29.0951087  77.8389048  53.7942768
  28.7007785  77.9132060  53.0192878  28.5391204  78.2246995  54.3451130
  28.9553900  77.9070823  53.7610428  40.7316034  70.8170342  53.4746647
  40.9365627  70.7492650  54.3203644  40.4042458  71.6229164  53.4067824
  40.7131282  70.9256283  53.5906302  35.4292185  78.1450911  55.2155615
  35.1255323  77.5906899  55.8166023  34.7271606  78.3243121  54.7283649
  35.2808395  78.0895693  55.2325321  34.4858282  75.4551430  49.7800317
  34.7618017  74.7370343  49.3677884  35.0856952  76.0536350  49.5721423
  34.6151547  75.4371801  49.6881078  43.9849722  71.3702107  52.9549412
  43.3724035  71.8572509  53.3403144  44.0813897  70.6945597  53.4987064
  43.9087619  71.3420415  53.0928271  37.9868803  73.1264948  48.0546912
  38.4412549  73.2975508  48.7794756  38.4608848  72.5133058  47.6544687
  38.1237123  73.0615833  48.1020673  31.9044951  73.7715271  58.0517668
  32.3646432  73.8454201  58.7892792  31.9501058  74.5696525  57.7017489
  31.9795506  73.9009418  58.1090424  33.5528301  74.4381966  62.6189695
  33.1613866  73.7915313  63.0545473  33.7214163  75.0293402  63.2383950
  33.5199211  74.4296234  62.7752401  47.6274750  82.4419043  58.3826929
  47.6857873  82.8905692  59.1286905  46.9941217  82.8517856  57.9457009
  47.5426045  82.5692778  58.4279477  35.3281823  79.8307482  49.1591919
  36.0723868  80.2181758  49.3974869  35.4742519  78.9864907  49.3232407
  35.4592408  79.7637955  49.2185889  37.2461398  71.6257741  54.1923780
  36.3997443  71.7980549  54.0665130  37.2432531  70.8207085  54.5289609
  37.1208548  71.5318770  54.2234907  38.3159699  75.4032955  55.0585838
  37.8419653  74.8774717  55.5691149  38.6877834  74.8562428  54.4900700
  38.3009587  75.2448952  55.0500986  28.6932729  77.4004462  60.4269384
  29.5558342  77.3000171  60.3406714  28.3624512  76.8199171  59.8654956
  28.7717925  77.2996089  60.3314790  44.5796429  80.4635331  56.4692619
  44.3394652  79.6241746  56.4735045  45.0588436  80.5435498  57.1933392
  44.6148613  80.3516731  56.5767421  40.2443198  76.2969510  48.1211592
  39.7166217  76.3798254  47.4317301  40.7038906  77.0387381  48.1176237
  40.2345049  76.4190172  48.0186287  46.5801616  77.2436788  54.4221878
  46.3411386  77.2032622  53.5842663  46.7435517  78.0907940  54.5487599
  46.5691920  77.3628873  54.3175360  43.1847646  81.6286738  60.3526923
  43.9081845  81.1759264  60.1737943  42.9197609  81.9091403  59.5699251
  43.2528920  81.6037706  60.2105638  32.0534515  76.2246911  57.0879802
  31.4287585  76.2365303  56.4805755  31.7180110  76.7007086  57.7371042
  31.9120007  76.2965428  57.0936371  32.2376263  74.5672030  43.1452487
  31.8889068  75.2191755  43.6084037  31.7572709  74.5529143  42.4176358
  32.1146507  74.6615083  43.1063579  38.9666436  81.7270616  58.5021938
  38.3523429  81.1828666  58.7970573  39.4833721  81.2134852  58.0227754
  38.9522098  81.5707025  58.4746167  38.2062733  82.7974886  56.2366237
  37.7790341  82.1724604  55.8031672  38.1987677  82.5149808  57.0625244
  38.1421874  82.6627666  56.2946064  31.3225260  77.8340059  59.3054671
  31.4818747  77.0783383  59.7106393  31.1418154  78.3830998  59.9595408
  31.3190619  77.8033873  59.4617377  39.2645563  70.0001294  59.8605460
  38.7686124  70.1964969  59.1697027  40.0214625  70.3993963  59.6894262
  39.3032388  70.0879028  59.7325597  36.5348443  73.6743640  56.4508771
  36.5590930  73.1403753  55.7621551  36.7859916  73.1660949  57.1134361
  36.5758361  73.5204544  56.4473415  32.8149765  72.4014459  55.8314515
  32.8548136  72.9023665  56.5449223  31.9899430  72.4924852  55.5620438
  32.6989291  72.4896275  55.8965053  34.9979378  81.9675199  63.9334810
  34.1475008  82.1046913  64.0692455  35.1607505  81.2338977  64.3782511
  34.8963241  81.8789300  64.0190409  34.2364128  78.9174968  58.1288414
  33.4056058  79.0848786  57.9223662  34.1815645  78.5410919  58.9137299
  34.1053543  78.8864700  58.2136942  32.0447911  72.4083861  63.7644825
  32.6700615  71.8645994  64.0374257  31.5898391  71.9278779  63.1952615
  32.0696172  72.2573343  63.7206419  32.6100172  77.1930560  48.6578532
  32.7503133  77.6903024  49.3607173  33.1082705  76.4916854  48.7992745
  32.7041253  77.1632539  48.7830111  32.6400394  78.0597671  45.9871109
  33.2745474  78.6558096  45.9220570  32.7226005  77.7601129  46.8016979
  32.7456945  78.1038579  46.0974195  45.6182960  80.5913148  58.8557473
  46.2100800  81.2310399  58.8875671  46.0541955  79.8936185  59.1449540
  45.7701391  80.5831499  58.9038305  34.2179377  73.9911646  45.9616551
  34.5395218  73.5114729  45.3075813  34.4806321  74.8011292  45.7707362
  34.3045403  74.0401544  45.8372043  39.6138532  73.3783840  58.3240030
  40.0393604  72.9256367  57.7123556  38.9995525  72.8243911  58.6004817
  39.5867178  73.2297817  58.2745055  29.1453382  80.2565512  49.2560655
  29.6545612  80.8530019  49.6371960  29.6187655  79.9891485  48.5737074
  29.2896758  80.3051327  49.2115177  38.0532755  69.8498940  51.7330607
  37.4101073  69.6996587  52.3015745  37.7132162  69.6041285  50.9679711
  37.9077832  69.7911063  51.7033622  42.6432102  77.8058367  51.1560615
  41.9723291  78.3488069  51.0273681  43.3371852  78.2753222  50.9142310
  42.6460969  77.9556638  51.1016143  42.8060229  74.2614251  54.0650989
  43.1587839  73.8343974  54.7396787  41.9475031  74.1765094  54.1952065
  42.7309674  74.1858991  54.1845999  31.5043914  76.8921770  52.1233835
  30.7855903  77.3085903  52.3906699  31.8756276  77.4576009  51.5725473
  31.4535846  77.0371052  52.0816642  40.8043495  77.5249619  58.0135831
  40.7841422  77.3432914  58.8670610  40.8522696  78.3961638  57.9895414
  40.8078136  77.6266157  58.1359126  38.7489825  84.1136811  63.9384307
  38.7085680  83.4686488  63.3529463  39.5613143  84.0573429  64.2509719
  38.8632978  84.0095778  63.8981257  37.2790488  75.9319770  47.4607215
  36.6855328  76.2536767  46.9091782  37.3165766  75.0860866  47.2528321
  37.1964878  75.8544098  47.3489986  44.2384289  69.3832662  54.9935301
  43.7315154  68.6761802  54.9256479  45.0351723  69.0525851  55.1236378
  44.2811528  69.2305814  55.0034296  40.1548305  75.8899275  50.8908965
  39.9261998  75.9131976  50.0487323  40.4146381  75.0656742  51.0103975
  40.1594493  75.7715355  50.7834162  34.4367533  77.7433748  60.4934065
  33.9246437  77.1354931  60.8519096  34.2647030  78.4590340  60.9608041
  34.3357170  77.7597047  60.6150289  29.2833248  76.1871323  63.1436427
  29.1135838  76.8472698  62.5984633  28.8399198  76.3977884  63.8648916
  29.1932582  76.3157305  63.1698056  33.2093068  74.4275821  52.1863160
  33.6850434  74.7892901  51.5513342  32.7081667  75.0832289  52.4663303
  33.2058427  74.5770010  52.1339901  46.4404429  83.8997589  47.9776165
  46.8238035  84.6488945  48.2074262  45.6448542  84.1463409  47.7188155
  46.3798211  84.0467283  47.9733739  38.3136604  75.6657992  62.9336321
  38.8708034  75.4371802  62.3014786  37.9897669  76.4263658  62.6571533
  38.3483014  75.7441829  62.7992818  26.1835313  79.0918189  58.4024917
  25.6362032  78.4218834  58.5205785  26.9727691  78.7248036  58.4668384
  26.2187496  78.9383175  58.4293617  36.0319721  78.7525646  63.8988328
  36.7831048  79.0677323  64.2127882  36.2242298  78.5504817  63.0722249
  36.1711135  78.7693027  63.8231723  35.2519721  76.5717021  45.5536544
  35.6318686  76.5896650  44.7687659  34.5112317  77.0171010  45.4327392
  35.1988558  76.6398795  45.4200113  42.8805011  74.8799212  51.1412123
  42.8799238  74.7247869  51.9996399  42.6761191  75.7262199  51.0853509
  42.8504789  74.9819833  51.2600062  24.9422282  78.3038996  55.5570940
  24.7644043  77.8515605  56.2825855  24.6541304  79.1065158  55.7409417
  24.8735235  78.3561554  55.6914443  40.6045863  79.5596714  54.7948330
  41.0999529  78.8419709  54.7552350  39.7945639  79.2567511  54.6802817
  40.5589757  79.4094360  54.7722056  36.0504475  83.4094527  46.9445334
  35.2415797  83.0861201  46.8978644  36.5579384  82.7027749  46.8773583
  36.0054142  83.2575843  46.9275629  42.6697682  82.3100401  57.4825459
  43.0952754  81.7874823  56.9295884  42.3054602  82.9081239  56.9614082
  42.6784285  82.3210628  57.3234468  36.1745777  70.7962136  60.7684711
  36.3073682  69.9993130  61.0965687  36.5590929  71.3228539  61.3482987
  36.2502105  70.7562053  60.9028214  39.2478132  67.7192462  57.3665804
  38.4424095  67.6090192  57.6833643  39.1184867  67.8204918  56.5095670
  39.1098265  67.7176132  57.2873845  42.7044092  73.8837954  57.9605501
  42.1207081  74.3847161  57.5483069  43.0248386  73.3767510  57.3269824
  42.6657268  73.8829789  57.8064008  35.2438891  72.7978549  48.2364176
  36.0654586  72.9676862  47.9945871  34.7808542  72.9525810  47.5130474
  35.2970054  72.8460282  48.0935820  33.8334223  70.7921311  59.0162605
  34.3778636  70.4512438  59.6066946  33.8871159  71.6506773  59.1583889
  33.9223343  70.8676571  59.1244478  53.0674084  84.4008764  52.0399451
  52.7527525  85.0912242  52.4719873  52.5501026  84.3453546  51.3384951
  52.9438554  84.4943652  51.9996400  48.1010414  85.8832259  49.0099924
  48.8296575  85.7048214  48.5638081  48.1905307  86.7250339  49.2207103
  48.2217076  85.9816137  48.9753442  55.0396369  87.6872751  55.9064049
  55.6822277  87.7570856  56.4925965  55.2919390  87.0201974  55.4043591
  55.1718501  87.5999100  55.9191329  51.6580964  86.4017013  56.3752167
  52.0391475  85.7195184  56.7620041  50.8544248  86.1126615  56.1927832
  51.5957425  86.2584061  56.4056223  52.2937590  87.4439592  60.1872294
  53.0391182  87.2549402  59.7735719  51.8774894  87.9697830  59.6286150
  52.3422564  87.4941737  60.0436867  50.3388510  87.8722116  50.8569554
  51.0414863  87.6729864  50.3789512  50.0732699  87.0998058  51.1638397
  50.4035143  87.7285082  50.8314995  52.4848620  82.5102785  53.9866100
  52.6032188  82.9679249  53.2533403  52.3110795  81.7048047  53.7002318
  52.4767791  82.4596558  53.8367034  49.4526183  84.3653588  54.9284762
  48.5819741  84.3392309  54.8818072  49.7066525  84.1930780  54.1110608
  49.3619743  84.3363732  54.8004899  48.5467557  86.9152776  58.2151085
  48.1599310  86.9401808  58.9964615  48.0600495  86.3494455  57.7625602
  48.4180066  86.8348527  58.2638989  48.2124699  83.8019762  60.5061345
  48.8417817  84.3380062  60.2282415  48.3810562  83.7097121  61.3574911
  48.3302494  83.8681124  60.5909873  51.7048618  86.3355650  53.4746647
  51.9098211  86.2677958  54.3203644  51.3775042  87.1414471  53.4067824
  51.6863865  86.4441591  53.5906302  54.9582305  86.8887415  52.9549412
  54.3456619  87.3757817  53.3403144  55.0546480  86.2130905  53.4987064
  54.8820203  86.8605723  53.0928271  48.2193982  87.1443049  54.1923780
  47.3730027  87.3165857  54.0665130  48.2165114  86.3392393  54.5289609
  48.0941132  87.0504078  54.2234907  50.2378147  85.5186602  59.8605460
  49.7418708  85.7150277  59.1697027  50.9947209  85.9179271  59.6894262
  50.2764971  85.6064336  59.7325597  49.0265339  85.3684248  51.7330607
  48.3833657  85.2181894  52.3015745  48.6864746  85.1226593  50.9679711
  48.8810416  85.3096371  51.7033622  55.2116873  84.9017970  54.9935301
  54.7047737  84.1947110  54.9256479  56.0084306  84.5711159  55.1236378
  55.2544112  84.7491122  55.0034296  47.1478360  86.3147444  60.7684711
  47.2806266  85.5178437  61.0965687  47.5323513  86.8413847  61.3482987
  47.2234689  86.2747361  60.9028214  50.2210715  83.2377770  57.3665804
  49.4156679  83.1275500  57.6833643  50.0917451  83.3390226  56.5095670
  50.0830848  83.2361440  57.2873845  11.7342694   9.3405424  37.0046573
  11.7036699  10.1950060  37.1764843  12.3324043   9.0400716  37.5632717
  11.8179852   9.4221920  37.1121375   8.2436096  14.6967600  51.3659960
   8.9502863  14.2019631  51.4946894   8.4324031  15.1376682  50.6362618
   8.3764001  14.6885951  51.2769005   4.7708479  18.3869162  32.9522282
   4.4359847  19.0646084  32.5166504   5.2835349  17.9974473  32.3639154
   4.7974060  18.4293740  32.8009074   4.3112770  20.3383431  38.8933394
   4.6952149  20.9070329  38.3538169   4.2471911  19.6132941  38.4139210
   4.3586197  20.3158894  38.7427256   7.7794200  10.4873119  44.4031155
   8.3250160  11.1658205  44.4625125   7.7211076  10.3460579  43.5432737
   7.8510114  10.5665120  44.2843216   9.5559269  11.9157726  35.2764883
   9.4398795  12.6665412  35.7057021  10.3515155  11.6581679  35.5260970
   9.6563858  11.9892573  35.3768975   0.7369015  22.8939774  41.1914364
   1.3806470  23.3352938  41.5810522   1.0625270  22.0893200  41.1044622
   0.8800843  22.8404969  41.2359841   1.4389594  15.9051749  36.5634225
   1.7605435  16.4456956  35.9595534   2.0861691  15.3348520  36.6956515
   1.5815649  15.9010924  36.4941261   3.6779238  14.2938189  36.6348404
   4.1172873  13.6855289  37.0803176   3.5283901  13.9145562  35.8633869
   3.7200703  14.1476660  36.5867571   1.1450881  12.8882200  43.8367229
   1.7899883  12.3954644  43.5178178   1.3852658  13.0306987  44.6633307
   1.2761466  12.8359643  43.9116762   3.6836972  15.7337106  43.4874122
   3.9660215  14.9388512  43.2660878   4.4123132  16.2117694  43.5079183
   3.8326536  15.6871703  43.4577137   7.2788574  12.6465370  33.5879173
   7.1939869  13.5026337  33.7328742   7.7672957  12.3709694  34.2561332
   7.3377472  12.7322691  33.7081254   8.2107007   9.2650164  35.0876908
   7.6818479   9.4809798  35.7474214   8.7332027   9.9586303  35.0077877
   8.2095460   9.3993301  35.1732507  13.6655060  14.8396468  40.4609952
  12.8352764  15.0507112  40.6243369  13.6164313  14.0133523  40.1852236
  13.5361796  14.7486075  40.4447318   1.7264798  17.6700323  43.2957862
   1.2091740  17.3107738  42.6919170   2.4239189  17.1462497  43.3063928
   1.7530379  17.5398011  43.2088121   5.3828390  18.1195137  49.2574035
   5.4711736  17.9321277  50.1052245   5.8118102  17.4732566  48.8578882
   5.4590492  17.9958144  49.3245786   2.9498850  17.4026297  48.2391697
   2.3869685  16.9898907  48.7631358   3.7119873  17.3279202  48.6584840
   2.9793298  17.3303697  48.3784698  13.1609019   7.4866869  44.2560374
  12.3237440   7.5569056  44.4907968  13.1297250   7.4891364  43.3834676
  13.0327301   7.4977096  44.1619922   7.8839204  11.6822546  39.8472265
   8.6396720  12.1154060  39.8861174   7.9901529  11.0327315  40.4206901
   8.0109375  11.6500030  39.9370291  10.9219376  15.5095823  40.5974668
  10.4854607  15.5132565  41.3533640  10.5882291  16.1901322  40.1654246
  10.8081996  15.6108279  40.6455501   5.4948449  17.5504156  51.9217819
   6.2788866  17.6635004  52.2873561   5.2945044  16.7245293  52.1176504
   5.5814475  17.4450875  52.0052205   5.6518843  19.4614258  45.5684274
   4.8534088  19.2213758  45.8258143   6.1004854  19.5128651  46.3151322
   5.5993454  19.4336649  45.7169198  14.0563722  12.2276743  39.4894305
  14.7180156  11.6667411  39.3890214  13.4155134  11.7328774  39.8146997
  14.0592589  12.0713152  39.5226646   4.9440530  15.5246874  31.7975229
   5.3591678  15.1931898  31.1059724   4.1132459  15.2915776  31.6695365
   4.8828538  15.4418130  31.6766076  10.3428553  13.2442125  39.2306294
  10.5784142  13.3887324  38.4033145  10.4918116  14.0084533  39.6237808
  10.3994356  13.3781180  39.1669898  12.1719009  12.0843791  37.0675898
  12.5027226  12.6171431  36.4615993  12.7452097  12.1382679  37.7237849
  12.3052688  12.1713360  37.0753680   4.7119579  13.2074703  53.4604462
   3.9192560  13.5218215  53.6457082   4.8268507  13.4226171  52.6225247
   4.6114990  13.2858539  53.3642797   7.3850898   9.9308694  37.7499478
   7.4797753  10.6697988  38.2039104   6.7609742   9.5026169  38.1834043
   7.3059928   9.9770014  37.8807626   5.6403372  13.1094906  48.3989759
   6.2142234  12.4722151  48.5538323   5.5618176  13.1098989  47.5299417
   5.7136607  13.0160018  48.2936170   7.6373920  11.7757434  30.9836430
   7.5554082  11.8459621  31.8491417   8.2753640  12.3387178  30.7920171
   7.7193757  11.8696405  31.0826380  13.2798361   7.3254288  38.5716060
  13.0234926   6.5134230  38.3813943  14.1227675   7.3331855  38.3446247
  13.3664386   7.2066286  38.5100877   4.7414030  11.7977888  33.9945037
   5.5554669  12.0892781  33.8827808   4.6773171  11.1437750  33.4203330
   4.8516769  11.7443083  33.8933874  10.9623520  14.4803884  48.4074612
  10.7262157  13.6491949  48.2886673  11.6066749  14.4289491  48.9929456
  11.0218191  14.3501572  48.4760506   0.6121938  15.2699405  39.1217349
   1.2495885  15.0311153  39.6669142   1.0377010  15.4736564  38.3870509
   0.7698104  15.2650416  39.0934506  11.9859941  14.2648333  44.4702907
  11.6805758  14.9976390  44.8316222  11.2666156  13.8586262  44.1895693
  11.8347283  14.3130066  44.4816044   2.9943410  15.7471828  40.8011135
   3.0682418  15.5847000  41.6552985   3.8112916  15.9362018  40.5571617
   3.1259769  15.7508570  40.8909161  17.6861733  10.9041334  43.7971251
  17.6186233  10.9237293  42.9273838  17.6717395  11.7471661  44.0226922
  17.6740489  11.0315068  43.7023728   1.5347996  18.7106571  35.5324608
   1.8246294  18.3195552  34.8083835   2.2651477  18.8923276  35.9729884
   1.6854880  18.6800385  35.4907415  15.4720350   9.6785720  42.0717845
  16.0228272   9.0453789  42.3114938  15.4564466  10.2101113  42.7633350
  15.5505547   9.6634668  42.2096704   2.1242741  13.5124317  46.6177739
   1.6254435  14.2240085  46.6962627   2.9342965  13.8324984  46.5795901
   2.1698848  13.6651166  46.6234307   9.1748756   7.9182053  41.1822442
   8.8313522   7.1972389  41.5329691   9.2741799   7.7095905  40.3400800
   9.1390799   7.7806257  41.1094122   1.6421867  22.0603343  37.3815451
   2.2945925  21.5279786  37.6106477   0.9447476  21.7071996  37.7683325
   1.6352585  21.9292866  37.4727618   9.6361785  14.3807757  36.7246430
  10.2019818  15.0400967  36.6404973   8.9889689  14.7257456  37.1962832
   9.6240542  14.5289699  36.7819186   6.1068364  17.3246542  36.1483509
   5.8655039  16.5914402  35.7410574   6.2869696  17.8733399  35.4949842
   6.0975988  17.2968933  35.9913732   1.3367684  12.6155101  37.5604431
   1.1410467  13.2229836  36.9664734   1.5602030  11.9223045  37.0796105
   1.3402325  12.6032627  37.4020512  11.5697246  11.0441625  40.3443226
  11.4831220  11.1997051  41.1978005  11.1147726  11.6879700  39.9702631
  11.4900502  11.1617380  40.4150333   9.3371110  15.0735731  42.7555567
   9.1985470  15.7716777  43.2604309   8.5571108  14.9184388  42.3991749
   9.2014337  15.1535898  42.7781841   7.6749196  11.3732107  49.0077949
   7.6697234  10.5011923  49.0120375   8.3810189  11.5720276  48.5347404
   7.7794200  11.2735981  48.9384984   0.4747844  19.2911862  45.2452796
   0.6237408  18.7314778  44.5926200   1.2547846  19.3703864  45.6285315
   0.6121938  19.2197428  45.2049745  10.8324483  14.4313985  33.5172066
  10.4531292  13.6451123  33.5101356  10.1690729  14.9800842  33.3743710
  10.6782958  14.3958809  33.4952863   3.0001145  19.4626505  46.5237287
   2.9244816  18.7935316  47.0788075   2.9291004  20.1644293  47.0377953
   2.9781751  19.4671413  46.6814135   3.6571392  17.9827504  37.3560893
   4.4221283  17.7137148  37.0343557   3.5549481  17.4977515  38.0730955
   3.7552887  17.8717069  37.4140720   6.1790052  15.0139688  29.3360842
   6.9463037  15.0739813  28.9266694   5.7321361  14.4420129  28.8517160
   6.2263479  14.9376264  29.2038552   7.0767848  13.8194344  41.6213574
   6.4012849  13.5879576  42.1226961   7.0860224  13.2115527  40.9955679
   6.9786352  13.6953269  41.6029726   9.0784582  16.6759476  33.8523752
   9.1604420  17.4826462  33.5285203   9.5634324  16.6955435  34.5764526
   9.1621740  16.7980139  33.9110651   2.3892779  22.8694825  44.9815287
   2.8788709  22.1705614  44.7990952   1.8177011  22.5718695  45.5691345
   2.3777309  22.7221049  45.0416328   4.7142675  11.2254247  36.8215166
   5.2558220  10.7224628  37.2853786   5.0289234  11.1719442  36.0104651
   4.8407072  11.1433668  36.7698978   8.5859782  15.4356894  53.9342078
   9.3994648  15.1642043  54.0947211   8.4254749  15.1364434  53.1302274
   8.6829731  15.3511820  53.8387484   2.8829125  16.6171599  34.1055194
   2.9521945  15.7586137  34.2448194   3.6617580  16.8343480  33.7774218
   3.0081975  16.5224463  34.0772351   7.2736612  19.0409300  38.3191687
   6.8816404  18.7376015  37.6014553   7.4289685  19.8778390  38.1296641
   7.2390202  19.1193137  38.1848184   7.4376287  15.6059289  38.2597718
   7.0790942  15.7773932  39.0361750   6.9514998  16.0672494  37.7025716
   7.3134984  15.6998260  38.2922987   8.5981026  16.4963185  49.2064919
   9.2360747  16.0023380  48.8727375   7.9555118  16.4240585  48.6217145
   8.5975253  16.4122193  49.0707274  10.3238026   8.3452331  43.7730834
   9.8965635   8.2578679  43.0178934   9.6864079   8.4530106  44.3585678
  10.1667634   8.3484991  43.7476276   8.6535283  17.1882993  45.8470275
   9.4427661  16.8372058  45.9672357   8.8278881  18.0019381  45.5846909
   8.7955565  17.2568850  45.8258143  14.4027823  12.8241251  45.3166975
  14.4610947  13.2727899  46.0626952  13.7694290  13.2340064  44.8797055
  14.3179118  12.9514985  45.3619524   8.0426918  18.4444793  41.7521721
   7.8446606  18.9335607  41.0577933   7.4214629  18.6486034  42.3305855
   7.9214482  18.5461331  41.7344945  11.3549502  10.8457538  43.4032666
  11.1147725  10.0063954  43.4075092  11.8341510  10.9257705  44.1273439
  11.3901686  10.7338938  43.5107468  13.3554689   7.6258996  41.3561925
  13.1164459   7.5854830  40.5182709  13.5188591   8.4730148  41.4827646
  13.3444993   7.7451081  41.2515407   9.9600719  12.0108945  47.2866970
  10.6834918  11.5581471  47.1077990   9.6950682  12.2913611  46.5039298
  10.0281993  11.9859913  47.1445685   6.5733354  15.2495281  34.1861296
   7.2967553  15.7153394  34.0425869   6.1333945  15.3168891  33.4358893
   6.6149046  15.3279118  34.0546077   5.7419509  12.1092823  45.4361985
   5.1276502  11.5650873  45.7310620   6.2586794  11.5957060  44.9567801
   5.7275171  11.9529232  45.4086213   4.9815806  13.1797093  43.1706284
   4.5543414  12.5546812  42.7371719   4.9740751  12.8972015  43.9965291
   4.9174947  13.0449874  43.2286111   1.7732451  12.3497406  50.8674856
   0.9228081  12.4869120  51.0032501   1.9360579  11.6161184  51.3122558
   1.6716314  12.2611507  50.9530456  12.3936033  10.9735356  45.7897520
  12.9853874  11.6132606  45.8215718  12.8295028  10.2758392  46.0789586
  12.5454465  10.9653706  45.8378352   4.2229423  15.3952728  46.4155414
   3.7154514  15.9488575  46.8596044   3.9256069  15.4561018  45.5974188
   4.1034308  15.4859039  46.3603870   6.8337204  19.3115986  34.3459357
   6.1166513  19.1376848  33.8806594   7.4843941  19.0768558  33.8134843
   6.8239054  19.2511778  34.1988575   9.4185175   8.1880574  38.0900662
   8.7476365   8.7310277  37.9613728  10.1124925   8.6575430  37.8482357
   9.4214042   8.3378846  38.0356190   3.4671909  20.3277286  43.3212420
   3.2437563  19.5696116  43.6896447   2.9781752  20.3575308  42.5992860
   3.3615358  20.2199511  43.2689161   7.5796568   7.9071827  44.9475878
   7.5594495   7.7255122  45.8010656   7.6275769   8.7783845  44.9235461
   7.5831209   8.0088365  45.0699172   5.5242898  14.4959019  50.8724354
   5.4838753  13.8508696  50.2869510   6.3366216  14.4395636  51.1849766
   5.6386051  14.3917985  50.8321303   2.1150366  20.5477744  40.7749505
   1.7010764  19.8851875  40.3853347   2.7997740  20.6955603  40.2545199
   2.1548737  20.4718403  40.6406002   5.4815660  19.7067830  41.5273122
   5.0831943  19.8170100  40.7593942   4.8666879  19.9149896  42.1099681
   5.3314549  19.7541398  41.5004421  13.2157502  14.2819796  34.9116212
  13.5991108  15.0311153  35.1414309  12.4201616  14.5285616  34.6528201
  13.1551285  14.4289490  34.9073786   7.3798936   9.9418921  41.7288377
   7.8752602   9.2241916  41.6892397   6.5698712   9.6389719  41.6142864
   7.3342830   9.7916567  41.7062103   2.8257548  13.7916734  33.8785381
   2.0168871  13.4683408  33.8318691   3.3332457  13.0849957  33.8113630
   2.7807215  13.6398051  33.8615676   9.4450755  12.6922609  44.4165506
   9.8705827  12.1697031  43.8635931   9.0807675  13.2903446  43.8954128
   9.4537358  12.7032836  44.2574515   6.0329355  16.4056873  40.7466663
   6.5040533  17.1197136  40.9156648   6.3689533  15.8055623  41.2826532
   6.1524470  16.4228337  40.8499039   8.1206339  18.0158186  52.9258735
   8.2303305  17.2266747  53.2815482   8.4497236  17.9264123  52.1233073
   8.1858745  17.8864039  52.8601126   6.6703301  16.1974807  47.5094356
   6.1224247  15.5732691  47.2414421   7.1316330  16.3869079  46.7938435
   6.6570511  16.1333857  47.3644787   6.2361627  17.2025880  44.0403697
   7.0560001  17.0588846  44.3019992   5.9555705  17.8272079  44.5820135
   6.3158371  17.2736232  44.1591636  22.7075278  24.8590731  37.0046573
  22.6769282  25.7135368  37.1764843  23.3056627  24.5586024  37.5632717
  22.7912436  24.9407228  37.1121375  15.9074963  23.9466382  41.7599504
  15.0512858  24.1074881  41.8108620  15.9542616  23.0758446  41.7804565
  15.7874074  23.8417184  41.7705570  10.2916102  33.4829100  37.5236735
   9.5399002  33.1044639  37.2952780  10.7402114  33.5147534  36.7755545
  10.2465769  33.4314708  37.3794237  19.2168679  30.2152908  51.3659960
  19.9235446  29.7204939  51.4946894  19.4056615  30.6561990  50.6362618
  19.3496585  30.2071258  51.2769005  15.7441062  33.9054470  32.9522282
  15.4092431  34.5831391  32.5166504  16.2567933  33.5159781  32.3639154
  15.7706643  33.9479048  32.8009074  15.2845354  35.8568739  38.8933394
  15.6684733  36.4255637  38.3538169  15.2204495  35.1318249  38.4139210
  15.3318781  35.8344202  38.7427256  18.7526784  26.0058426  44.4031155
  19.2982744  26.6843513  44.4625125  18.6943660  25.8645887  43.5432737
  18.8242698  26.0850428  44.2843216  11.8700858  33.4947493  39.7899508
  11.9711221  32.6847846  40.0996635  11.2742604  33.4004439  39.1599186
  11.7973397  33.3612521  39.7425746  20.5291852  27.4343034  35.2764883
  20.4131378  28.1850720  35.7057021  21.3247739  27.1766987  35.5260970
  20.6296442  27.5077880  35.3768975  11.7101598  38.4125082  41.1914364
  12.3539054  38.8538246  41.5810522  12.0357854  37.6078508  41.1044622
  11.8533427  38.3590276  41.2359841   5.0665903  29.5167779  39.4151841
   4.8316087  28.6835431  39.3084110   5.2051544  29.7972445  38.6013042
   5.0521565  29.4351283  39.2794196   7.3655990  21.6853510  42.3136149
   6.7461022  21.0946157  42.1446164   7.2639854  22.2764945  41.6800472
   7.2593666  21.6857592  42.1941139  12.4122178  31.4237057  36.5634225
  12.7338019  31.9642264  35.9595534  13.0594274  30.8533828  36.6956515
  12.5548233  31.4196232  36.4941261  14.4623886  23.4253051  36.6468612
  15.1604051  23.6041179  37.1390075  14.7776218  22.9023391  36.0239001
  14.6119223  23.3746824  36.6270622   7.0925123  25.2305791  44.5579718
   6.9683820  25.8168237  45.1929537   7.7443408  24.7365987  44.8591993
   7.1698773  25.2444596  44.6965647  14.6511821  29.8123497  36.6348404
  15.0905457  29.2040597  37.0803176  14.5016484  29.4330870  35.8633869
  14.6933287  29.6661968  36.5867571  12.1183464  28.4067508  43.8367229
  12.7632467  27.9139951  43.5178178  12.3585241  28.5492295  44.6633307
  12.2494049  28.3544951  43.9116762  14.6569556  31.2522414  43.4874122
  14.9392798  30.4573820  43.2660878  15.3855716  31.7303002  43.5079183
  14.8059119  31.2057011  43.4577137  12.6350749  18.7945448  40.7289887
  12.3054079  19.2456592  40.0593586  11.9595751  18.7161611  41.2762893
  12.4861186  18.8496583  40.7113110  18.2521158  28.1650678  33.5879173
  18.1672453  29.0211644  33.7328742  18.7405541  27.8895002  34.2561332
  18.3110055  28.2507999  33.7081254  19.8427157  14.7830971  38.9739497
  19.5280598  15.4734450  39.4059920  19.3254099  14.7275753  38.2724998
  19.7191628  14.8765860  38.9336447  19.1839591  24.7835472  35.0876908
  18.6551063  24.9995106  35.7474214  19.7064611  25.4771610  35.0077877
  19.1828044  24.9178609  35.1732507  24.6387644  30.3581776  40.4609952
  23.8085347  30.5692420  40.6243369  24.5896896  29.5318831  40.1852236
  24.5094379  30.2671383  40.4447318  11.0739199  28.6798689  33.8884376
  10.4896414  29.1848720  34.2950240  10.6709294  28.4541076  33.1480968
  10.9278503  28.7206937  33.8389401   6.6283227  34.3953450  40.6908048
   6.1450806  35.1203940  40.6667631   7.4406546  34.6929580  40.8018205
   6.6773975  34.5455804  40.7035327  12.6997382  33.1885631  43.2957862
  12.1824323  32.8293046  42.6919170  13.3971773  32.6647805  43.3063928
  12.7262963  33.0583319  43.2088121  16.3560974  33.6380445  49.2574035
  16.4444319  33.4506585  50.1052245  16.7850686  32.9917874  48.8578882
  16.4323076  33.5143452  49.3245786  13.9231433  32.9211605  48.2391697
  13.3602268  32.5084214  48.7631358  14.6852457  32.8464510  48.6584840
  13.9525882  32.8489005  48.3784698  15.5316413  24.9264341  32.3653297
  15.7712417  25.1342325  31.5528640  15.8532254  24.1221850  32.4742241
  15.6153571  24.8378442  32.2613850  10.8406704  16.8557737  36.2112834
  11.5952672  17.2236054  35.9729885  10.6634238  17.2297291  36.9792014
  10.9261182  16.9655924  36.2897723   9.4827425  34.9109626  40.8428327
  10.1848004  34.3961615  40.9001084   9.4024908  35.2383777  41.6475202
   9.5751185  34.8823852  40.9701120  24.1341602  23.0052177  44.2560374
  23.2970023  23.0754364  44.4907968  24.1029833  23.0076672  43.3834676
  24.0059885  23.0162404  44.1619922  10.5306331  25.1485213  49.9708742
  10.7026835  25.0391107  50.8194024  11.0675689  25.7939618  49.7339935
  10.6351335  25.2277214  50.0613839   9.1963768  19.2628056  32.9090947
   9.0139341  19.4799936  32.0831940  10.0589381  19.3767068  32.9649562
   9.2968358  19.3117953  32.7945435   8.8078200  31.1015978  40.3513935
   9.6467100  31.3338911  40.3987697   8.8389969  30.2320289  40.2820971
   8.9359918  31.0072924  40.3478580   9.4330903  31.5216853  44.6527241
   9.9729128  31.3787984  45.3230613   8.7500849  31.9213604  45.0211267
   9.4123057  31.5596524  44.8061663  14.8763487  16.2654466  35.9439971
  15.6049648  16.0870421  35.4978128  14.9658380  17.1072546  36.1547149
  14.9970149  16.3638345  35.9093489  18.8571788  27.2007854  39.8472265
  19.6129303  27.6339368  39.8861174  18.9634113  26.5512623  40.4206901
  18.9841959  27.1685337  39.9370291  21.8951959  31.0281131  40.5974668
  21.4587191  31.0317873  41.3533640  21.5614875  31.7086630  40.1654246
  21.7814579  31.1293587  40.6455501  16.4681033  33.0689464  51.9217819
  17.2521449  33.1820311  52.2873561  16.2677627  32.2430601  52.1176504
  16.5547058  32.9636183  52.0052205   4.8368048  27.7417144  44.8061662
   4.5706463  26.9256260  44.9652653   4.8506612  27.7870299  43.9357178
   4.7992771  27.6274049  44.7015144  21.8149442  18.0694959  42.8404096
  22.4575351  18.1393063  43.4266011  22.0672463  17.4024182  42.3383638
  21.9471574  17.9821307  42.8531375   8.7425795  22.5402228  31.4213421
   8.0283972  22.2540408  31.8335853   9.2269764  22.8798854  32.0619808
   8.7085159  22.5483878  31.5769055   9.5866655  21.2795522  47.4528670
   8.8938451  20.8092502  47.6989402  10.2026982  21.0533827  48.0270377
   9.5751185  21.1762654  47.5737823  16.6251426  34.9799566  45.5684274
  15.8266672  34.7399066  45.8258143  17.0737438  35.0313959  46.3151322
  16.5726037  34.9521957  45.7169198  25.0296305  27.7462051  39.4894305
  25.6912739  27.1852719  39.3890214  24.3887717  27.2514081  39.8146997
  25.0325173  27.5898460  39.5226646  15.9173113  31.0432182  31.7975229
  16.3324262  30.7117206  31.1059724  15.0865043  30.8101084  31.6695365
  15.8561122  30.9603438  31.6766076   5.2461462  28.5275923  42.0873407
   5.0637035  28.5022809  41.2345699   5.9811131  28.9974861  42.1262315
   5.3275526  28.5937285  41.9671325  21.3161136  28.7627433  39.2306294
  21.5516725  28.9072632  38.4033145  21.4650700  29.5269841  39.6237808
  21.3726939  28.8966488  39.1669898   8.3107214  25.2460926  48.5955515
   9.0347186  25.2313957  49.0820410   8.4123350  25.9556281  48.0977484
   8.4325423  25.3485629  48.5934302  23.1451593  27.6029099  37.0675898
  23.4759810  28.1356739  36.4615993  23.7184681  27.6567987  37.7237849
  23.2785272  27.6898668  37.0753680  15.6852163  28.7260011  53.4604462
  14.8925144  29.0403522  53.6457082  15.8001090  28.9411479  52.6225247
  15.5847574  28.8043847  53.3642797  18.3583482  25.4494002  37.7499478
  18.4530336  26.1883296  38.2039104  17.7342325  25.0211477  38.1834043
  18.2792512  25.4955322  37.8807626  16.6135956  28.6280214  48.3989759
  17.1874817  27.9907459  48.5538323  16.5350760  28.6284297  47.5299417
  16.6869191  28.5345326  48.2936170   5.2132372  25.4069424  42.2372473
   5.7905875  25.2705875  42.8764719   4.5146434  24.9505208  42.4918058
   5.1953394  25.3191690  42.3694763  18.6106503  27.2942742  30.9836430
  18.5286666  27.3644929  31.8491417  19.2486224  27.8572486  30.7920171
  18.6926341  27.3881713  31.0826380  11.9699674  27.0603480  40.4510957
  11.7118919  26.2275214  40.4242256  12.0248157  27.2861093  39.6103457
  11.9399452  26.9701251  40.3231093  17.0500725  19.1631930  40.5515049
  16.3457051  18.6741116  40.7098968  17.0985699  19.1754405  39.6803494
  16.9530776  19.0921578  40.4454389  10.9434387  24.6141242  40.9375851
  10.3683978  24.7733410  41.5739812  10.5670063  23.9776651  40.4744302
  10.8037199  24.5439055  40.9630410  14.6107675  23.0864591  45.7968230
  14.2222108  22.6618809  45.1420421  13.9462374  23.3346741  46.3045256
  14.4554603  23.0603312  45.7756098  24.2530944  22.8439596  38.5716060
  23.9967509  22.0319537  38.3813943  25.0960258  22.8517163  38.3446247
  24.3396970  22.7251593  38.5100877   0.6891205  24.2581317  38.9520292
   0.7751457  23.8813185  39.7333822   1.3167003  23.8841762  38.4740250
   0.7947756  24.1466799  38.9965769  18.4334037  16.7839220  43.3092214
  18.8144549  16.1017391  43.6960088  17.6297321  16.4948822  43.1267878
  18.3710498  16.6406269  43.3396270  15.7146613  27.3163196  33.9945037
  16.5287252  27.6078089  33.8827808  15.6505755  26.6623058  33.4203330
  15.8249352  27.2628391  33.8933874  21.9356104  29.9989192  48.4074612
  21.6994741  29.1677257  48.2886673  22.5799333  29.9474799  48.9929456
  21.9950774  29.8686880  48.4760506  11.5854522  30.7884713  39.1217349
  12.2228469  30.5496461  39.6669142  12.0109593  30.9921872  38.3870509
  11.7430688  30.7835724  39.0934506   6.2767164  33.0273050  43.0051653
   6.3171309  33.2987901  42.1771432   6.8361688  33.5514958  43.4209440
   6.3650510  33.1448805  42.9443541  12.2257337  26.0087003  33.4592238
  12.6102489  25.7894710  34.2108783  11.9768957  26.8349948  33.5893314
  12.2459409  26.0985149  33.5893315  12.3925877  19.2893418  53.1754822
  12.0779318  20.0592981  52.9124385  12.0715810  18.7263674  52.5907049
  12.2984796  19.3203687  53.0496172  22.9592524  29.7833641  44.4702907
  22.6538341  30.5161698  44.8316222  22.2398740  29.3771570  44.1895693
  22.8079867  29.8315374  44.4816044  13.9675994  31.2657136  40.8011135
  14.0415002  31.1032308  41.6552985  14.7845500  31.4547326  40.5571617
  14.0992352  31.2693878  40.8909161   7.7281750  31.6114999  37.8305579
   6.9019868  31.8576736  37.7039857   7.7893742  31.5327080  38.6967637
   7.6155917  31.6359948  37.9394523   9.9457774  17.6783940  38.7901019
   9.0780200  17.7506539  38.8558628  10.2332978  18.4806019  38.9788994
   9.8597522  17.8078087  38.8275785  19.0690663  17.8261799  47.1212340
  19.8144255  17.6371610  46.7075766  18.6527967  18.3520037  46.5626197
  19.1175637  17.8763945  46.9776914  12.5080579  34.2291879  35.5324608
  12.7978878  33.8380860  34.8083835  13.2384060  34.4108584  35.9729884
  12.6587464  34.1985693  35.4907415  26.4452934  25.1971028  42.0717845
  26.9960855  24.5639097  42.3114938  26.4297049  25.7286420  42.7633350
  26.5238130  25.1819976  42.2096704  13.0975325  29.0309625  46.6177739
  12.5987018  29.7425393  46.6962627  13.9075549  29.3510292  46.5795901
  13.1431431  29.1836474  46.6234307  10.4486495  36.2059261  38.5984758
  10.2286790  35.9156616  39.3911425  10.2281017  35.5474216  38.0702670
  10.3834089  36.0658970  38.6373667   9.3603442  28.2932578  40.8640460
   9.0716691  27.6670049  41.3986187  10.2286790  28.2352865  40.9305140
   9.4463694  28.1920122  40.9531414  20.1481340  23.4367361  41.1822442
  19.8046106  22.7157697  41.5329691  20.2474383  23.2281212  40.3400800
  20.1123383  23.2991565  41.1094122  12.6154451  37.5788651  37.3815451
  13.2678509  37.0465094  37.6106477  11.9180059  37.2257304  37.7683325
  12.6085169  37.4478174  37.4727618   9.5635716  29.9327829  36.7882825
  10.3181684  30.3140868  37.0018287   8.9706328  30.3838973  37.2429521
   9.5872429  30.0556656  36.8865703  20.6094369  29.8993065  36.7246430
  21.1752402  30.5586275  36.6404973  19.9622272  30.2442763  37.1962832
  20.5973125  30.0475007  36.7819186  12.0242383  21.8890669  51.9140037
  11.2142158  22.1948449  51.8029879  12.5017069  22.6096252  52.0292621
  11.9745861  22.0405270  51.9147108  10.8833942  31.1036390  42.1622940
  10.3614696  31.2436682  42.8474805  11.2707962  30.3447055  42.3525058
  10.8637643  31.0121914  42.2924017   7.8725126  21.1542199  36.2317895
   7.5849922  20.7843469  35.4949842   8.5595594  21.6237054  35.9701600
   7.9314023  21.1689168  36.0832971  17.0800947  32.8431850  36.1483509
  16.8387623  32.1099710  35.7410574  17.2602280  33.3918707  35.4949842
  17.0708571  32.8154241  35.9913732  12.3100268  28.1340409  37.5604431
  12.1143050  28.7415144  36.9664734  12.5334613  27.4408353  37.0796105
  12.3134909  28.1217935  37.4020512  10.7078798  25.0195147  37.6785300
  11.4301450  25.1836305  37.2189106  10.2286791  25.7404812  37.5724639
  10.7442528  25.1493377  37.5950914  18.6672305  21.3558946  43.0581985
  17.8283406  21.3820225  42.8220248  18.7376673  22.0029682  43.6387331
  18.5540699  21.4555072  43.1091101   8.3586414  27.4253220  46.7839439
   8.8707511  27.7037473  46.1348199   8.0722757  28.1642514  47.1502253
   8.3921278  27.5755573  46.7429318  17.1141584  18.2544323  37.7909600
  17.8167936  18.0552071  37.3129559  16.8485772  17.4820265  38.0978444
  17.1788216  18.1107289  37.7655042  22.5429829  26.5626933  40.3443226
  22.4563804  26.7182359  41.1978005  22.0880309  27.2065008  39.9702631
  22.4633086  26.6802688  40.4150333   5.4453321  21.9323412  37.0803176
   5.5469457  22.7349573  37.4084151   6.2409208  21.7310747  36.7826257
   5.5781226  22.0209310  37.0838531  11.8770140  19.5179608  46.8440481
  11.6853337  19.5334743  47.6939905  12.7268736  19.7143283  46.8207136
  11.9745862  19.5493959  46.9663776   6.2617053  22.0470590  44.8224298
   6.1202545  21.1954530  44.9468806   6.5457616  22.0899250  43.9986504
   6.2824899  21.9270340  44.7191922  16.4155645  23.8837680  38.9668786
  16.1690360  23.8033431  39.8005575  16.7440768  23.0991148  38.7731313
  16.4276889  23.7563945  39.0616309  20.3103694  30.5921039  42.7555567
  20.1718053  31.2902085  43.2604309  19.5303692  30.4369696  42.3991749
  20.1746921  30.6721206  42.7781841  18.6481779  26.8917415  49.0077949
  18.6429818  26.0197231  49.0120375  19.3542773  27.0905584  48.5347404
  18.7526783  26.7921289  48.9384984  12.3752673  26.6194399  48.3791769
  12.5196048  27.1995607  47.7434879  12.7228321  26.9970695  49.0841624
  12.4480134  26.7615103  48.3890764  14.5472590  25.8184567  46.1616900
  13.7995904  26.0115581  45.7565179  14.7014115  24.9929786  45.9241022
  14.4595017  25.7249678  46.0662306  11.4480428  34.8097170  45.2452796
  11.5969991  34.2500086  44.5926200  12.2280430  34.8889172  45.6285315
  11.5854521  34.7382736  45.2049745  21.8057067  29.9499293  33.5172066
  21.4263876  29.1636431  33.5101356  21.1423312  30.4986150  33.3743710
  21.6515542  29.9144117  33.4952863  13.9733728  34.9811813  46.5237287
  13.8977399  34.3120624  47.0788075  13.9023587  35.6829601  47.0377953
  13.9514335  34.9856721  46.6814135  14.7874367  19.7135118  47.0512304
  15.2446981  20.4459092  47.1785096  14.8630696  19.2901583  47.8099560
  14.8665337  19.7592356  47.1813381   7.0307358  19.9600937  48.1401748
   6.4949548  19.3481296  48.4562515   7.0925123  20.5349073  48.7935415
   6.9602991  19.9547865  48.2837175  19.2601693  12.8924993  40.9206147
  19.3785261  13.3501456  40.1873450  19.0863869  12.0870254  40.6342365
  19.2520864  12.8418765  40.7707081  14.6303975  33.5012812  37.3560893
  15.3953866  33.2322456  37.0343557  14.5282065  33.0162822  38.0730955
  14.7285471  33.3902377  37.4140720  12.6656745  21.7037222  43.8954128
  11.8752820  21.5228682  44.2171464  13.0617368  20.9264174  43.8784423
  12.6073621  21.5624682  43.9406677  17.1522636  30.5324996  29.3360842
  17.9195621  30.5925121  28.9266694  16.7053945  29.9605437  28.8517160
  17.1996063  30.4561572  29.2038552  18.0500431  29.3379652  41.6213574
  17.3745433  29.1064884  42.1226961  18.0592807  28.7300835  40.9955679
  17.9518936  29.2138577  41.6029726  15.1794575  24.1797481  48.3777627
  15.1153716  25.0407437  48.2497764  15.3191763  23.8629474  47.5773178
  15.1910045  24.2597647  48.2405840  20.0517166  32.1944784  33.8523752
  20.1337003  33.0011770  33.5285203  20.5366908  32.2140743  34.5764526
  20.1354324  32.3165446  33.9110651  13.8613669  26.8729620  42.5193830
  13.4375918  27.0734119  41.7832848  13.6858524  26.0258468  42.6318130
  13.7724550  26.7778401  42.4267520  13.3625362  38.3880133  44.9815287
  13.8521293  37.6890922  44.7990952  12.7909595  38.0904003  45.5691345
  13.3509892  38.2406357  45.0416328   9.1496114  27.3681671  37.9521803
   9.3060733  27.3028474  38.8077795   9.4896707  28.1430224  37.7400482
   9.2229349  27.4730870  38.0476397  15.6875259  26.7439555  36.8215166
  16.2290804  26.2409936  37.2853786  16.0021818  26.6904750  36.0104651
  15.8139656  26.6618976  36.7698978  19.5592366  30.9542202  53.9342078
  20.3727231  30.6827351  54.0947211  19.3987332  30.6549742  53.1302274
  19.6562314  30.8697128  53.8387484  13.8561708  32.1356907  34.1055194
  13.9254529  31.2771445  34.2448194  14.6350163  32.3528787  33.7774218
  13.9814558  32.0409771  34.0772351  16.8364528  21.6375860  46.8737466
  17.0506498  20.9986774  46.3200820  16.2198427  22.0821683  46.4445328
  16.7769857  21.6086003  46.7287897  18.2469196  34.5594608  38.3191687
  17.8548988  34.2561323  37.6014553  18.4022268  35.3963698  38.1296641
  18.2122786  34.6378445  38.1848184   5.7230375  24.5516622  38.2682570
   6.1029340  24.9701167  37.6042837   5.1485740  25.1330078  38.5751413
   5.6941700  24.6994481  38.2159311  19.0003616  23.2464925  47.8120773
  18.1880298  22.9390815  47.8933946  19.4593551  22.7663925  48.3763486
  18.9484001  23.1301417  47.9075368  18.4108871  31.1244597  38.2597718
  18.0523525  31.2959240  39.0361750  17.9247581  31.5857802  37.7025716
  18.2867568  31.2183568  38.2922987  16.2279257  14.7475795  41.8624809
  15.3572815  14.7214516  41.8158119  16.4819598  14.5752987  41.0450655
  16.1372817  14.7185939  41.7344946  13.1997236  26.8043762  30.7997952
  13.4889761  27.5808645  31.0741526  13.2869035  26.2932494  31.5012451
  13.2551492  26.8435680  30.9440450  16.0957123  24.6524996  52.5949476
  16.5656755  25.2767113  52.9817350  16.1419004  23.9841972  53.1542690
  16.1724999  24.6459676  52.7349547  13.2528397  16.7582024  43.3198279
  12.7366886  16.0662215  43.4449858  12.6922326  17.4252801  43.2660878
  13.0934910  16.7545281  43.3304345  15.3220631  17.2974984  45.1491132
  14.9352384  17.3224015  45.9304662  14.8353568  16.7316662  44.6965649
  15.1933139  17.2170735  45.1979036  19.5713610  32.0148493  49.2064919
  20.2093331  31.5208688  48.8727375  18.9287702  31.9425893  48.6217145
  19.5707837  31.9307501  49.0707274  21.2970610  23.8637639  43.7730834
  20.8698218  23.7763987  43.0178934  20.6596663  23.9715414  44.3585678
  21.1400217  23.8670298  43.7476276  14.9877772  14.1841969  47.4401392
  15.6170890  14.7202269  47.1622462  15.1563635  14.0919328  48.2914958
  15.1055567  14.2503331  47.5249920  14.7891687  18.9713164  49.7127804
  15.6165117  18.6998313  49.7686418  14.8099533  19.7674006  50.0691622
  14.9144537  19.0492918  49.7742986  19.6267867  32.7068301  45.8470275
  20.4160245  32.3557366  45.9672357  19.8011464  33.5204689  45.5846909
  19.7688148  32.7754158  45.8258143   9.3661177  26.1177027  42.8998064
   8.5249184  26.0180901  43.1076958   9.5751185  26.8872507  43.2512385
   9.2725870  26.2169070  42.9825379   6.8436744  23.7396564  40.7282815
   6.4493442  23.8139575  39.9532924   6.2876861  24.1254510  41.2791177
   6.7039556  23.8078338  40.6950475  18.4801691  16.7177858  40.4086694
  18.6851284  16.6500166  41.2543691  18.1528115  17.5236679  40.3407871
  18.4616939  16.8263798  40.5246349  13.1777842  24.0458426  42.1495662
  12.8740979  23.4914414  42.7506069  12.4757263  24.2250636  41.6623696
  13.0294052  23.9903208  42.1665367  12.2343939  21.3558946  36.7140364
  12.5103673  20.6377858  36.3017931  12.8342608  21.9543866  36.5061470
  12.3637204  21.3379316  36.6221125  11.2396193  31.2608147  46.8567759
  11.1316548  31.2710209  47.7229818  11.4491974  32.0862927  46.6672713
  11.2546304  31.3849221  46.9571851  21.7335378  17.2709622  39.8889459
  21.1209692  17.7580024  40.2743191  21.8299553  16.5953113  40.4327110
  21.6573276  17.2427931  40.0268317  15.7354459  19.0272463  34.9886959
  16.1898206  19.1983023  35.7134803  16.2094505  18.4140574  34.5884734
  15.8722780  18.9623348  35.0360720   9.2569985  28.5120789  44.3189697
   8.6657918  29.1530287  44.2892712  10.0191008  28.9358406  44.2920997
   9.2818245  28.6696627  44.3104844   9.6530608  19.6722787  44.9857715
  10.1132089  19.7461716  45.7232838   9.6986714  20.4704041  44.6357536
   9.7281163  19.8016934  45.0430471  11.3013957  20.3389482  49.5529742
  10.9099523  19.6922829  49.9885520  11.4699820  20.9300917  50.1723997
  11.2684868  20.3303749  49.7092448  25.3760406  28.3426559  45.3166975
  25.4343530  28.7913207  46.0626952  24.7426874  28.7525371  44.8797055
  25.2911702  28.4700293  45.3619524  19.0159501  33.9630101  41.7521721
  18.8179190  34.4520915  41.0577933  18.3947212  34.1671342  42.3305855
  18.8947066  34.0646639  41.7344945  13.0767479  25.7314997  36.0931966
  13.8209524  26.1189274  36.3314916  13.2228176  24.8872423  36.2572454
  13.2078065  25.6645470  36.1525936  14.9947055  17.5265256  41.1263827
  14.1483100  17.6988064  41.0005177  14.9918187  16.7214600  41.4629656
  14.8694205  17.4326285  41.1574954  16.0645355  21.3040471  41.9925885
  15.5905310  20.7782233  42.5031196  16.4363491  20.7569944  41.4240747
  16.0495244  21.1456467  41.9841032   6.4418385  23.3011977  47.3609431
   7.3043998  23.2007687  47.2746761   6.1110168  22.7206687  46.7995003
   6.5203582  23.2003604  47.2654837  22.3282086  26.3642846  43.4032666
  22.0880309  25.5249262  43.4075092  22.8074093  26.4443013  44.1273439
  22.3634270  26.2524246  43.5107468  17.9928855  22.1977025  35.0551639
  17.4651874  22.2805769  34.3657348  18.4524563  22.9394897  35.0516284
  17.9830705  22.3197688  34.9526334  24.3287273  23.1444304  41.3561925
  24.0897043  23.1040138  40.5182709  24.4921174  23.9915456  41.4827646
  24.3177576  23.2636389  41.2515407  20.9333303  27.5294253  47.2866970
  21.6567502  27.0766779  47.1077990  20.6683265  27.8098919  46.5039298
  21.0014576  27.5045221  47.1445685   9.8020171  22.1254426  44.0219849
   9.1773242  22.1372818  43.4145802   9.4665766  22.6014602  44.6711089
   9.6605663  22.1972943  44.0276418   9.9861920  20.4679545  30.0792534
   9.6374724  21.1199270  30.5424083   9.5058366  20.4536658  29.3516405
   9.8632164  20.5622598  30.0403625   6.5145847  30.1854886  45.4623613
   5.9845772  29.4947325  45.5118588   6.7870940  30.1765072  44.6336322
   6.4770569  30.0822018  45.3471029  17.5465937  30.7680589  34.1861296
  18.2700136  31.2338702  34.0425869  17.1066529  30.8354198  33.4358893
  17.5881630  30.8464426  34.0546077  16.7152093  27.6278131  45.4361985
  16.1009086  27.0836181  45.7310620  17.2319378  27.1142368  44.9567801
  16.7007755  27.4714540  45.4086213  15.9548390  28.6982401  43.1706284
  15.5275998  28.0732120  42.7371719  15.9473334  28.4157323  43.9965291
  15.8907531  28.5635182  43.2286111   9.0710917  23.7347574  46.2394718
   9.2304404  22.9790898  46.6446439   8.8903810  24.2838514  46.8935455
   9.0676276  23.7041388  46.3957424  17.0131220  15.9008810  46.7945507
  16.5171781  16.0972484  46.1037074  17.7700282  16.3001478  46.6234309
  17.0518045  15.9886544  46.6665644  14.2834099  19.5751156  43.3848818
  14.3076587  19.0411268  42.6961598  14.5345573  19.0668464  44.0474408
  14.3244018  19.4212060  43.3813462   1.7941689  26.8582651  42.8191962
   1.6885138  26.8129495  41.9544046   1.0441909  27.2036431  43.1006247
   1.6677292  26.9023559  42.7329291  10.5635422  18.3021974  42.7654562
  10.6033793  18.8031180  43.4789269   9.7385086  18.3932368  42.4960485
  10.4474948  18.3903790  42.8305100  12.7465035  27.8682714  50.8674856
  11.8960665  28.0054428  51.0032501  12.9093162  27.1346492  51.3122558
  12.6448898  27.7796815  50.9530456  11.9849785  24.8182484  45.0628461
  11.1541715  24.9856302  44.8563709  11.9301302  24.4418435  45.8477346
  11.8539200  24.7872215  45.1476989   9.7933568  18.3091377  50.6984872
  10.4186272  17.7653509  50.9714304   9.3384048  17.8286294  50.1292662
   9.8181829  18.1580858  50.6546465  10.3585829  23.0938075  35.5918579
  10.4988790  23.5910540  36.2947220  10.8568362  22.3924370  35.7332792
  10.4526910  23.0640054  35.7170158  10.3886051  23.9605186  32.9211155
  11.0231131  24.5565611  32.8560617  10.4711662  23.6608644  33.7357026
  10.4942602  24.0046094  33.0314242  23.3668617  26.4920664  45.7897520
  23.9586457  27.1317914  45.8215718  23.8027612  25.7943700  46.0789586
  23.5187048  26.4839014  45.8378352  11.9665034  19.8919162  32.8956597
  12.2880875  19.4122244  32.2415860  12.2291978  20.7018808  32.7047409
  12.0531060  19.9409060  32.7712089  15.1962007  30.9138036  46.4155414
  14.6887098  31.4673883  46.8596044  14.8988653  30.9746326  45.5974188
  15.0766892  31.0044347  46.3603870  17.3624189  19.2791356  45.2580077
  17.7879261  18.8263882  44.6463603  16.7481182  18.7251426  45.5344864
  17.3352834  19.1305332  45.2085102   6.8939039  26.1573027  36.1900701
   7.4031268  26.7537535  36.5712007   7.3673311  25.8899001  35.5077121
   7.0382415  26.2058843  36.1455224  17.8069787  34.8301294  34.3459357
  17.0899097  34.6562156  33.8806594  18.4576525  34.5953866  33.8134843
  17.7971638  34.7697086  34.1988575  15.8018412  15.7506455  38.6670654
  15.1586730  15.6004102  39.2355792  15.4617819  15.5048801  37.9019758
  15.6563489  15.6918578  38.6373669  20.3917758  23.7065882  38.0900662
  19.7208948  24.2495585  37.9613728  21.0857509  24.1760738  37.8482357
  20.3946626  23.8564154  38.0356190  14.4404492  35.8462594  43.3212420
  14.2170147  35.0881424  43.6896447  13.9514335  35.8760616  42.5992860
  14.3347941  35.7384819  43.2689161  20.5545886  20.1621766  40.9991035
  20.9073496  19.7351489  41.6736834  19.6960687  20.0772609  41.1292112
  20.4795331  20.0866507  41.1186046   9.2529571  22.7929286  39.0573882
   8.5341560  23.2093418  39.3246745   9.6241933  23.3583524  38.5065520
   9.2021503  22.9378567  39.0156689  18.5529152  23.4257135  44.9475878
  18.5327079  23.2440430  45.8010656  18.6008352  24.2969153  44.9235461
  18.5563793  23.5273673  45.0699172  16.4975482  30.0144327  50.8724354
  16.4571336  29.3694003  50.2869510  17.3098800  29.9580944  51.1849766
  16.6118635  29.9103293  50.8321303  13.0882949  36.0663052  40.7749505
  12.6743348  35.4037183  40.3853347  13.7730323  36.2140911  40.2545199
  13.1281321  35.9903711  40.6406002  16.4548243  35.2253138  41.5273122
  16.0564526  35.3355408  40.7593942  15.8399463  35.4335204  42.1099681
  16.3047133  35.2726706  41.5004421  15.0276145  21.8327286  34.3947261
  14.4340985  22.1544282  33.8431828  15.0651423  20.9868381  34.1868367
  14.9450534  21.7551614  34.2830033  21.9869946  15.2840178  41.9275348
  21.4800811  14.5769317  41.8596525  22.7837380  14.9533367  42.0576424
  22.0297185  15.1313329  41.9374343  17.9033962  21.7906790  37.8249012
  17.6747655  21.8139491  36.9827370  18.1632038  20.9664257  37.9444022
  17.9080150  21.6722870  37.7174209  12.1853190  23.6441263  47.4274112
  11.6732093  23.0362446  47.7859143  12.0132686  24.3597856  47.8948088
  12.0842827  23.6604562  47.5490335   7.0318905  22.0878838  50.0776474
   6.8621495  22.7480213  49.5324680   6.5884855  22.2985400  50.7988963
   6.9418239  22.2164821  50.1038103  10.9578724  20.3283336  39.1203207
  11.4336091  20.6900416  38.4853388  10.4567324  20.9839804  39.4003350
  10.9544083  20.4777525  39.0679948  24.1890086  29.8005104  34.9116212
  24.5723692  30.5496461  35.1414309  23.3934199  30.0470924  34.6528201
  24.1283868  29.9474798  34.9073786  16.0622261  21.5665508  49.8676367
  16.6193691  21.3379317  49.2354833  15.7383326  22.3271173  49.5911580
  16.0968671  21.6449344  49.7332864   3.9320969  24.9925704  45.3364963
   3.3847689  24.3226349  45.4545832   4.7213348  24.6255552  45.4008431
   3.9673153  24.8390690  45.3633664  13.7805378  24.6533161  50.8328374
  14.5316705  24.9684838  51.1467929  13.9727954  24.4512332  50.0062296
  13.9196792  24.6700543  50.7571770  13.0005377  22.4724536  32.4876591
  13.3804342  22.4904165  31.7027706  12.2597974  22.9178525  32.3667439
  12.9474215  22.5406311  32.3540159  20.6290668  20.7806727  38.0752170
  20.6284894  20.6255384  38.9336446  20.4246848  21.6269714  38.0193555
  20.5990446  20.8827348  38.1940109   2.6907939  24.2046512  42.4910986
   2.5129700  23.7523121  43.2165902   2.4026961  25.0072673  42.6749464
   2.6220892  24.2569070  42.6254489  18.3531520  25.4604229  41.7288377
  18.8485185  24.7427224  41.6892397  17.5431296  25.1575027  41.6142864
  18.3075413  25.3101875  41.7062103  13.7990132  29.3102042  33.8785381
  12.9901454  28.9868716  33.8318691  14.3065040  28.6035264  33.8113630
  13.7539798  29.1583359  33.8615676   4.4280409  26.7374235  39.6032746
   3.5625928  26.7259926  39.4915517   4.5279225  26.5504458  40.4503885
   4.3154576  26.7080297  39.7121690  20.4183339  28.2107917  44.4165506
  20.8438410  27.6882338  43.8635931  20.0540259  28.8088754  43.8954128
  20.4269941  28.2218144  44.2574515  10.0537419  36.5072134  43.1762851
  10.3683978  37.3208523  43.1840633  10.4630832  36.1222353  43.8445010
  10.1605517  36.5700836  43.2766943  17.0061938  31.9242181  40.7466663
  17.4773117  32.6382443  40.9156648  17.3422117  31.3240931  41.2826532
  17.1257053  31.9413645  40.8499039  19.0938923  33.5343494  52.9258735
  19.2035888  32.7452055  53.2815482  19.4229820  33.4449430  52.1233073
  19.1591329  33.4049347  52.8601126  13.9231433  16.6969651  47.7024758
  14.0559339  15.9000645  48.0305733  14.3076586  17.2236054  48.2823033
  13.9987762  16.6569568  47.8368261  17.6435885  31.7160115  47.5094356
  17.0956831  31.0917999  47.2414421  18.1048913  31.9054387  46.7938435
  17.6303094  31.6519165  47.3644787  16.9963788  13.6199978  44.3005851
  16.1909752  13.5097707  44.6173689  16.8670524  13.7212433  43.4435717
  16.8583921  13.6183648  44.2213891  20.4529749  19.7845469  44.8945548
  19.8692738  20.2854676  44.4823115  20.7734043  19.2775026  44.2609871
  20.4142924  19.7837305  44.7404055  12.9924548  18.6986064  35.1704223
  13.8140243  18.8684377  34.9285918  12.5294199  18.8533325  34.4470520
  13.0455710  18.7467797  35.0275867  11.5819880  16.6928827  45.9502652
  12.1264293  16.3519953  46.5406993  11.6356816  17.5514288  46.0923936
  11.6708999  16.7684086  46.0584525   7.3950439  30.4545243  42.8241459
   7.9995296  30.4141077  42.1955280   7.1877751  31.3016395  42.8545515
   7.4539336  30.5733245  42.7357576  17.2094211  32.7211188  44.0403697
  18.0292585  32.5774154  44.3019992  16.9288289  33.3457387  44.5820135
  17.2890954  32.7921540  44.1591636   2.6301721  29.4379860  42.6940383
   2.5325999  28.6276132  43.0030439   3.4130591  29.4171653  42.3086651
   2.7317858  29.3146950  42.6827246  26.8807546  39.4651690  41.7599504
  26.0245442  39.6260189  41.8108620  26.9275200  38.5943754  41.7804565
  26.7606658  39.3602492  41.7705570  21.2648686  49.0014408  37.5236735
  20.5131585  48.6229947  37.2952780  21.7134698  49.0332842  36.7755545
  21.2198353  48.9500015  37.3794237  26.7173646  49.4239778  32.9522282
  26.3825014  50.1016699  32.5166504  27.2300516  49.0345089  32.3639154
  26.7439227  49.4664356  32.8009074  22.6834182  53.9310390  41.1914364
  23.3271637  54.3723554  41.5810522  23.0090437  53.1263816  41.1044622
  22.8266010  53.8775584  41.2359841  16.0398486  45.0353087  39.4151841
  15.8048671  44.2020739  39.3084110  16.1784127  45.3157753  38.6013042
  16.0254149  44.9536590  39.2794196  18.3388574  37.2038818  42.3136149
  17.7193605  36.6131465  42.1446164  18.2372437  37.7950253  41.6800472
  18.2326249  37.2042900  42.1941139  23.3854761  46.9422364  36.5634225
  23.7070602  47.4827572  35.9595534  24.0326858  46.3719136  36.6956515
  23.5280817  46.9381540  36.4941261  18.0657707  40.7491099  44.5579718
  17.9416404  41.3353545  45.1929537  18.7175991  40.2551295  44.8591993
  18.1431356  40.7629904  44.6965647  23.0916048  43.9252816  43.8367229
  23.7365050  43.4325259  43.5178178  23.3317825  44.0677603  44.6633307
  23.2226633  43.8730258  43.9116762  23.6083333  34.3130756  40.7289887
  23.2786663  34.7641900  40.0593586  22.9328335  34.2346919  41.2762893
  23.4593769  34.3681891  40.7113110  22.0471782  44.1983997  33.8884376
  21.4628998  44.7034028  34.2950240  21.6441878  43.9726384  33.1480968
  21.9011086  44.2392245  33.8389401  17.6015811  49.9138758  40.6908048
  17.1183389  50.6389247  40.6667631  18.4139129  50.2114888  40.8018205
  17.6506559  50.0641112  40.7035327  26.5048997  40.4449649  32.3653297
  26.7445001  40.6527633  31.5528640  26.8264838  39.6407157  32.4742241
  26.5886155  40.3563750  32.2613850  21.8139287  32.3743044  36.2112834
  22.5685255  32.7421362  35.9729885  21.6366822  32.7482599  36.9792014
  21.8993766  32.4841232  36.2897723  20.4560008  50.4294934  40.8428327
  21.1580588  49.9146923  40.9001084  20.3757491  50.7569085  41.6475202
  20.5483769  50.4009160  40.9701120  21.5038915  40.6670521  49.9708742
  21.6759419  40.5576415  50.8194024  22.0408272  41.3124926  49.7339935
  21.6083919  40.7462522  50.0613839  20.1696352  34.7813363  32.9090947
  19.9871925  34.9985244  32.0831940  21.0321965  34.8952376  32.9649562
  20.2700941  34.8303261  32.7945435  19.7810784  46.6201286  40.3513935
  20.6199683  46.8524218  40.3987697  19.8122553  45.7505597  40.2820971
  19.9092501  46.5258232  40.3478580  20.4063487  47.0402161  44.6527241
  20.9461712  46.8973292  45.3230613  19.7233433  47.4398912  45.0211267
  20.3855641  47.0781832  44.8061663  25.8496071  31.7839774  35.9439971
  26.5782231  31.6055729  35.4978128  25.9390964  32.6257854  36.1547149
  25.9702733  31.8823653  35.9093489  15.8100632  43.2602452  44.8061662
  15.5439047  42.4441568  44.9652653  15.8239196  43.3055607  43.9357178
  15.7725354  43.1459356  44.7015144  19.7158379  38.0587536  31.4213421
  19.0016556  37.7725716  31.8335853  20.2002347  38.3984162  32.0619808
  19.6817742  38.0669186  31.5769055  20.5599238  36.7980830  47.4528670
  19.8671035  36.3277810  47.6989402  21.1759566  36.5719134  48.0270377
  20.5483768  36.6947962  47.5737823  26.8905697  46.5617490  31.7975229
  27.3056845  46.2302514  31.1059724  26.0597626  46.3286392  31.6695365
  26.8293705  46.4788746  31.6766076  16.2194045  44.0461231  42.0873407
  16.0369619  44.0208117  41.2345699  16.9543714  44.5160169  42.1262315
  16.3008109  44.1122593  41.9671325  19.2839797  40.7646234  48.5955515
  20.0079769  40.7499265  49.0820410  19.3855934  41.4741589  48.0977484
  19.4058006  40.8670937  48.5934302  16.1864956  40.9254732  42.2372473
  16.7638458  40.7891183  42.8764719  15.4879018  40.4690516  42.4918058
  16.1685977  40.8376998  42.3694763  22.9432258  42.5788787  40.4510957
  22.6851502  41.7460522  40.4242256  22.9980741  42.8046400  39.6103457
  22.9132036  42.4886559  40.3231093  21.9166970  40.1326550  40.9375851
  21.3416561  40.2918718  41.5739812  21.5402646  39.4961959  40.4744302
  21.7769782  40.0624363  40.9630410  11.6623789  39.7766625  38.9520292
  11.7484041  39.3998493  39.7333822  12.2899586  39.4027070  38.4740250
  11.7680340  39.6652107  38.9965769  17.2499748  48.5458358  43.0051653
  17.2903893  48.8173209  42.1771432  17.8094272  49.0700266  43.4209440
  17.3383094  48.6634113  42.9443541  23.1989920  41.5272311  33.4592238
  23.5835073  41.3080018  34.2108783  22.9501541  42.3535256  33.5893314
  23.2191993  41.6170457  33.5893315  18.7014334  47.1300307  37.8305579
  17.8752452  47.3762044  37.7039857  18.7626325  47.0512388  38.6967637
  18.5888501  47.1545256  37.9394523  20.9190358  33.1969248  38.7901019
  20.0512783  33.2691847  38.8558628  21.2065562  33.9991327  38.9788994
  20.8330106  33.3263395  38.8275785  30.0423246  33.3447107  47.1212340
  30.7876838  33.1556917  46.7075766  29.6260551  33.8705345  46.5626197
  30.0908221  33.3949252  46.9776914  23.4813163  49.7477187  35.5324608
  23.7711461  49.3566168  34.8083835  24.2116644  49.9293892  35.9729884
  23.6320047  49.7171001  35.4907415  24.0707908  44.5494933  46.6177739
  23.5719602  45.2610701  46.6962627  24.8808132  44.8695599  46.5795901
  24.1164015  44.7021781  46.6234307  21.4219079  51.7244569  38.5984758
  21.2019374  51.4341924  39.3911425  21.2013601  51.0659524  38.0702670
  21.3566673  51.5844278  38.6373667  20.3336026  43.8117886  40.8640460
  20.0449274  43.1855357  41.3986187  21.2019374  43.7538173  40.9305140
  20.4196278  43.7105430  40.9531414  23.5887034  53.0973959  37.3815451
  24.2411092  52.5650402  37.6106477  22.8912643  52.7442612  37.7683325
  23.5817752  52.9663482  37.4727618  20.5368299  45.4513137  36.7882825
  21.2914267  45.8326176  37.0018287  19.9438912  45.9024281  37.2429521
  20.5605013  45.5741964  36.8865703  21.8566526  46.6221698  42.1622940
  21.3347279  46.7621990  42.8474805  22.2440546  45.8632363  42.3525058
  21.8370227  46.5307222  42.2924017  18.8457710  36.6727507  36.2317895
  18.5582505  36.3028777  35.4949842  19.5328178  37.1422362  35.9701600
  18.9046607  36.6874476  36.0832971  23.2832851  43.6525717  37.5604431
  23.0875634  44.2600452  36.9664734  23.5067197  42.9593661  37.0796105
  23.2867492  43.6403243  37.4020512  21.6811381  40.5380455  37.6785300
  22.4034033  40.7021613  37.2189106  21.2019374  41.2590120  37.5724639
  21.7175112  40.6678685  37.5950914  19.3318998  42.9438528  46.7839439
  19.8440095  43.2222781  46.1348199  19.0455341  43.6827822  47.1502253
  19.3653861  43.0940881  46.7429318  16.4185904  37.4508719  37.0803176
  16.5202041  38.2534881  37.4084151  17.2141791  37.2496055  36.7826257
  16.5513810  37.5394618  37.0838531  22.8502723  35.0364916  46.8440481
  22.6585920  35.0520051  47.6939905  23.7001319  35.2328590  46.8207136
  22.9478445  35.0679267  46.9663776  17.2349636  37.5655898  44.8224298
  17.0935128  36.7139838  44.9468806  17.5190200  37.6084558  43.9986504
  17.2557483  37.4455648  44.7191922  23.3485256  42.1379706  48.3791769
  23.4928632  42.7180915  47.7434879  23.6960905  42.5156003  49.0841624
  23.4212717  42.2800410  48.3890764  25.7606950  35.2320426  47.0512304
  26.2179565  35.9644400  47.1785096  25.8363279  34.8086891  47.8099560
  25.8397920  35.2777664  47.1813381  18.0039942  35.4786245  48.1401748
  17.4682131  34.8666603  48.4562515  18.0657706  36.0534381  48.7935415
  17.9335574  35.4733173  48.2837175  23.6389328  37.2222529  43.8954128
  22.8485403  37.0413990  44.2171464  24.0349951  36.4449482  43.8784423
  23.5806205  37.0809990  43.9406677  28.1255219  46.0510304  29.3360842
  28.8928204  46.1110429  28.9266694  27.6786528  45.4790745  28.8517160
  28.1728646  45.9746879  29.2038552  24.8346253  42.3914928  42.5193830
  24.4108502  42.5919427  41.7832848  24.6591108  41.5443776  42.6318130
  24.7457133  42.2963709  42.4267520  20.1228698  42.8866979  37.9521803
  20.2793317  42.8213782  38.8077795  20.4629291  43.6615532  37.7400482
  20.1961932  42.9916178  38.0476397  24.8294292  47.6542214  34.1055194
  24.8987112  46.7956753  34.2448194  25.6082747  47.8714095  33.7774218
  24.9547142  47.5595078  34.0772351  16.6962959  40.0701930  38.2682570
  17.0761924  40.4886475  37.6042837  16.1218324  40.6515386  38.5751413
  16.6674284  40.2179789  38.2159311  27.2011840  30.2661103  41.8624809
  26.3305398  30.2399824  41.8158119  27.4552181  30.0938295  41.0450655
  27.1105400  30.2371247  41.7344946  24.1729820  42.3229070  30.7997952
  24.4622344  43.0993953  31.0741526  24.2601618  41.8117801  31.5012451
  24.2284076  42.3620988  30.9440450  24.2260981  32.2767332  43.3198279
  23.7099469  31.5847523  43.4449858  23.6654910  32.9438109  43.2660878
  24.0667494  32.2730589  43.3304345  26.2953214  32.8160292  45.1491132
  25.9084967  32.8409323  45.9304662  25.8086151  32.2501970  44.6965649
  26.1665723  32.7356042  45.1979036  25.9610356  29.7027277  47.4401392
  26.5903474  30.2387577  47.1622462  26.1296219  29.6104636  48.2914958
  26.0788150  29.7688639  47.5249920  25.7624271  34.4898472  49.7127804
  26.5897700  34.2183621  49.7686418  25.7832117  35.2859313  50.0691622
  25.8877121  34.5678226  49.7742986  20.3393761  41.6362335  42.8998064
  19.4981767  41.5366209  43.1076958  20.5483769  42.4057815  43.2512385
  20.2458453  41.7354378  42.9825379  17.8169328  39.2581872  40.7282815
  17.4226025  39.3324883  39.9532924  17.2609444  39.6439818  41.2791177
  17.6772140  39.3263646  40.6950475  24.1510425  39.5643734  42.1495662
  23.8473563  39.0099722  42.7506069  23.4489846  39.7435944  41.6623696
  24.0026635  39.5088516  42.1665367  23.2076523  36.8744254  36.7140364
  23.4836257  36.1563166  36.3017931  23.8075192  37.4729173  36.5061470
  23.3369787  36.8564624  36.6221125  22.2128776  46.7793454  46.8567759
  22.1049131  46.7895517  47.7229818  22.4224558  47.6048235  46.6672713
  22.2278888  46.9034529  46.9571851  20.2302568  44.0306097  44.3189697
  19.6390502  44.6715595  44.2892712  20.9923592  44.4543714  44.2920997
  20.2550829  44.1881935  44.3104844  20.6263191  35.1908095  44.9857715
  21.0864673  35.2647024  45.7232838  20.6719298  35.9889349  44.6357536
  20.7013747  35.3202242  45.0430471  22.2746541  35.8574790  49.5529742
  21.8832106  35.2108137  49.9885520  22.4432404  36.4486225  50.1723997
  22.2417451  35.8489057  49.7092448  24.0500063  41.2500305  36.0931966
  24.7942108  41.6374582  36.3314916  24.1960759  40.4057731  36.2572454
  24.1810648  41.1830778  36.1525936  25.9679639  33.0450564  41.1263827
  25.1215684  33.2173372  41.0005177  25.9650771  32.2399908  41.4629656
  25.8426788  32.9511593  41.1574954  27.0377939  36.8225779  41.9925885
  26.5637893  36.2967541  42.5031196  27.4096075  36.2755251  41.4240747
  27.0227828  36.6641775  41.9841032  17.4150969  38.8197285  47.3609431
  18.2776582  38.7192995  47.2746761  17.0842752  38.2391995  46.7995003
  17.4936165  38.7188912  47.2654837  20.7752755  37.6439734  44.0219849
  20.1505825  37.6558126  43.4145802  20.4398350  38.1199909  44.6711089
  20.6338247  37.7158251  44.0276418  20.9594504  35.9864853  30.0792534
  20.6107308  36.6384578  30.5424083  20.4790950  35.9721966  29.3516405
  20.8364748  36.0807906  30.0403625  17.4878431  45.7040194  45.4623613
  16.9578355  45.0132633  45.5118588  17.7603524  45.6950380  44.6336322
  17.4503153  45.6007326  45.3471029  20.0443500  39.2532882  46.2394718
  20.2036987  38.4976206  46.6446439  19.8636394  39.8023822  46.8935455
  20.0408859  39.2226696  46.3957424  27.9863803  31.4194118  46.7945507
  27.4904365  31.6157792  46.1037074  28.7432865  31.8186786  46.6234309
  28.0250628  31.5071851  46.6665644  25.2566683  35.0936464  43.3848818
  25.2809170  34.5596576  42.6961598  25.5078157  34.5853772  44.0474408
  25.2976602  34.9397368  43.3813462  12.7674273  42.3767959  42.8191962
  12.6617722  42.3314803  41.9544046  12.0174493  42.7221739  43.1006247
  12.6409876  42.4208867  42.7329291  21.5368005  33.8207282  42.7654562
  21.5766377  34.3216488  43.4789269  20.7117670  33.9117676  42.4960485
  21.4207531  33.9089098  42.8305100  20.7666152  33.8276685  50.6984872
  21.3918855  33.2838817  50.9714304  20.3116632  33.3471602  50.1292662
  20.7914412  33.6766166  50.6546465  21.3318412  38.6123383  35.5918579
  21.4721374  39.1095847  36.2947220  21.8300945  37.9109678  35.7332792
  21.4259493  38.5825362  35.7170158  21.3618635  39.4790494  32.9211155
  21.9963714  40.0750919  32.8560617  21.4444246  39.1793952  33.7357026
  21.4675186  39.5231402  33.0314242  22.9397618  35.4104470  32.8956597
  23.2613459  34.9307552  32.2415860  23.2024561  36.2204116  32.7047409
  23.0263643  35.4594368  32.7712089  17.8671623  41.6758335  36.1900701
  18.3763852  42.2722843  36.5712007  18.3405895  41.4084309  35.5077121
  18.0114998  41.7244150  36.1455224  26.7750996  31.2691763  38.6670654
  26.1319313  31.1189410  39.2355792  26.4350402  31.0234109  37.9019758
  26.6296073  31.2103886  38.6373669  20.2262154  38.3114594  39.0573882
  19.5074144  38.7278726  39.3246745  20.5974517  38.8768832  38.5065520
  20.1754086  38.4563875  39.0156689  26.0008729  37.3512593  34.3947261
  25.4073568  37.6729590  33.8431828  26.0384006  36.5053689  34.1868367
  25.9183118  37.2736922  34.2830033  23.1585774  39.1626571  47.4274112
  22.6464677  38.5547754  47.7859143  22.9865270  39.8783164  47.8948088
  23.0575411  39.1789870  47.5490335  18.0051489  37.6064146  50.0776474
  17.8354079  38.2665521  49.5324680  17.5617438  37.8170708  50.7988963
  17.9150822  37.7350128  50.1038103  21.9311308  35.8468644  39.1203207
  22.4068674  36.2085724  38.4853388  21.4299908  36.5025112  39.4003350
  21.9276667  35.9962833  39.0679948  14.9053553  40.5111012  45.3364963
  14.3580272  39.8411657  45.4545832  15.6945931  40.1440860  45.4008431
  14.9405737  40.3575998  45.3633664  23.9737961  37.9909844  32.4876591
  24.3536926  38.0089473  31.7027706  23.2330557  38.4363833  32.3667439
  23.9206799  38.0591619  32.3540159  13.6640523  39.7231820  42.4910986
  13.4862284  39.2708429  43.2165902  13.3759545  40.5257981  42.6749464
  13.5953476  39.7754377  42.6254489  24.7722715  44.8287350  33.8785381
  23.9634038  44.5054024  33.8318691  25.2797624  44.1220572  33.8113630
  24.7272382  44.6768667  33.8615676  15.4012992  42.2559543  39.6032746
  14.5358512  42.2445234  39.4915517  15.5011808  42.0689766  40.4503885
  15.2887159  42.2265605  39.7121690  21.0270002  52.0257442  43.1762851
  21.3416561  52.8393830  43.1840633  21.4363416  51.6407661  43.8445010
  21.1338100  52.0886144  43.2766943  24.8964017  32.2154959  47.7024758
  25.0291922  31.4185953  48.0305733  25.2809170  32.7421362  48.2823033
  24.9720346  32.1754876  47.8368261  27.9696372  29.1385286  44.3005851
  27.1642336  29.0283015  44.6173689  27.8403108  29.2397741  43.4435717
  27.8316505  29.1368956  44.2213891  23.9657132  34.2171372  35.1704223
  24.7872826  34.3869685  34.9285918  23.5026783  34.3718633  34.4470520
  24.0188294  34.2653105  35.0275867  22.5552464  32.2114134  45.9502652
  23.0996877  31.8705261  46.5406993  22.6089399  33.0699596  46.0923936
  22.6441583  32.2869394  46.0584525  18.3683022  45.9730550  42.8241459
  18.9727880  45.9326385  42.1955280  18.1610335  46.8201703  42.8545515
  18.4271920  46.0918553  42.7357576  13.6034305  44.9565168  42.6940383
  13.5058583  44.1461439  43.0030439  14.3863174  44.9356961  42.3086651
  13.7050441  44.8332258  42.6827246  44.6540445  55.8961347  37.0046573
  44.6234449  56.7505984  37.1764843  45.2521794  55.5956640  37.5632717
  44.7377603  55.9777844  37.1121375  32.2381270  64.5199716  37.5236735
  31.4864169  64.1415255  37.2952780  32.6867281  64.5518150  36.7755545
  32.1930936  64.4685323  37.3794237  37.6906229  64.9425086  32.9522282
  37.3557598  65.6202007  32.5166504  38.2033100  64.5530397  32.3639154
  37.7171810  64.9849664  32.8009074  37.2310521  66.8939354  38.8933394
  37.6149900  67.4626253  38.3538169  37.1669662  66.1688865  38.4139210
  37.2783948  66.8714818  38.7427256  33.8166026  64.5318108  39.7899508
  33.9176389  63.7218462  40.0996635  33.2207771  64.4375055  39.1599186
  33.7438564  64.3983136  39.7425746  42.4757019  58.4713649  35.2764883
  42.3596545  59.2221335  35.7057021  43.2712906  58.2137603  35.5260970
  42.5761609  58.5448496  35.3768975  33.6566765  69.4495698  41.1914364
  34.3004221  69.8908862  41.5810522  33.9823021  68.6449124  41.1044622
  33.7998594  69.3960892  41.2359841  27.0131070  60.5538395  39.4151841
  26.7781254  59.7206047  39.3084110  27.1516711  60.8343061  38.6013042
  26.9986732  60.4721898  39.2794196  34.3587345  62.4607672  36.5634225
  34.6803186  63.0012880  35.9595534  35.0059441  61.8904444  36.6956515
  34.5013400  62.4566848  36.4941261  36.5976988  60.8494112  36.6348404
  37.0370624  60.2411213  37.0803176  36.4481651  60.4701486  35.8633869
  36.6398454  60.7032583  36.5867571  40.1986325  59.2021294  33.5879173
  40.1137620  60.0582260  33.7328742  40.6870708  58.9265618  34.2561332
  40.2575222  59.2878615  33.7081254  41.1304758  55.8206088  35.0876908
  40.6016230  56.0365721  35.7474214  41.6529778  56.5142226  35.0077877
  41.1293211  55.9549225  35.1732507  46.5852811  61.3952392  40.4609952
  45.7550514  61.6063036  40.6243369  46.5362063  60.5689447  40.1852236
  46.4559547  61.3041999  40.4447318  33.0204366  59.7169305  33.8884376
  32.4361581  60.2219336  34.2950240  32.6174461  59.4911692  33.1480968
  32.8743670  59.7577553  33.8389401  28.5748395  65.4324066  40.6908048
  28.0915973  66.1574555  40.6667631  29.3871713  65.7300196  40.8018205
  28.6239142  65.5826419  40.7035327  34.6462549  64.2256246  43.2957862
  34.1289490  63.8663661  42.6919170  35.3436940  63.7018421  43.3063928
  34.6728130  64.0953934  43.2088121  35.8696600  63.9582220  48.2391697
  35.3067435  63.5454830  48.7631358  36.6317624  63.8835126  48.6584840
  35.8991049  63.8859621  48.3784698  37.4781580  55.9634957  32.3653297
  37.7177584  56.1712940  31.5528640  37.7997421  55.1592465  32.4742241
  37.5618738  55.8749058  32.2613850  31.4292592  65.9480242  40.8428327
  32.1313171  65.4332231  40.9001084  31.3490075  66.2754393  41.6475202
  31.5216352  65.9194468  40.9701120  30.7543367  62.1386594  40.3513935
  31.5932267  62.3709526  40.3987697  30.7855136  61.2690905  40.2820971
  30.8825085  62.0443540  40.3478580  31.3796070  62.5587469  44.6527241
  31.9194295  62.4158600  45.3230613  30.6966017  62.9584220  45.0211267
  31.3588224  62.5967140  44.8061663  43.8417126  62.0651747  40.5974668
  43.4052358  62.0688489  41.3533640  43.5080042  62.7457246  40.1654246
  43.7279746  62.1664203  40.6455501  26.7833215  58.7787760  44.8061662
  26.5171631  57.9626876  44.9652653  26.7971780  58.8240915  43.9357178
  26.7457938  58.6644664  44.7015144  30.6890962  53.5772844  31.4213421
  29.9749139  53.2911024  31.8335853  31.1734931  53.9169470  32.0619808
  30.6550326  53.5854494  31.5769055  46.9761473  58.7832667  39.4894305
  47.6377907  58.2223335  39.3890214  46.3352885  58.2884697  39.8146997
  46.9790340  58.6269076  39.5226646  37.8638280  62.0802798  31.7975229
  38.2789429  61.7487822  31.1059724  37.0330210  61.8471700  31.6695365
  37.8026289  61.9974054  31.6766076  27.1926629  59.5646539  42.0873407
  27.0102202  59.5393425  41.2345699  27.9276298  60.0345477  42.1262315
  27.2740693  59.6307901  41.9671325  43.2626303  59.7998049  39.2306294
  43.4981892  59.9443248  38.4033145  43.4115867  60.5640457  39.6237808
  43.3192107  59.9337103  39.1669898  45.0916760  58.6399715  37.0675898
  45.4224977  59.1727355  36.4615993  45.6649848  58.6938603  37.7237849
  45.2250439  58.7269284  37.0753680  40.3048649  56.4864618  37.7499478
  40.3995503  57.2253912  38.2039104  39.6807493  56.0582093  38.1834043
  40.2257679  56.5325938  37.8807626  27.1597539  56.4440040  42.2372473
  27.7371042  56.3076490  42.8764719  26.4611601  55.9875824  42.4918058
  27.1418561  56.3562306  42.3694763  40.5571670  58.3313357  30.9836430
  40.4751833  58.4015545  31.8491417  41.1951391  58.8943101  30.7920171
  40.6391508  58.4252329  31.0826380  22.6356373  55.2951933  38.9520292
  22.7216624  54.9183801  39.7333822  23.2632170  54.9212378  38.4740250
  22.7412924  55.1837415  38.9965769  37.6611781  58.3533812  33.9945037
  38.4752419  58.6448705  33.8827808  37.5970922  57.6993674  33.4203330
  37.7714520  58.2999006  33.8933874  33.5319689  61.8255329  39.1217349
  34.1693636  61.5867077  39.6669142  33.9574760  62.0292488  38.3870509
  33.6895855  61.8206339  39.0934506  28.2232331  64.0643666  43.0051653
  28.2636477  64.3358517  42.1771432  28.7826855  64.5885574  43.4209440
  28.3115677  64.1819421  42.9443541  34.1722504  57.0457619  33.4592238
  34.5567657  56.8265326  34.2108783  33.9234124  57.8720564  33.5893314
  34.1924576  57.1355765  33.5893315  44.9057691  60.8204257  44.4702907
  44.6003508  61.5532313  44.8316222  44.1863907  60.4142186  44.1895693
  44.7545034  60.8685990  44.4816044  35.9141161  62.3027752  40.8011135
  35.9880169  62.1402924  41.6552985  36.7310667  62.4917941  40.5571617
  36.0457519  62.3064494  40.8909161  50.6059484  57.4597257  43.7971251
  50.5383984  57.4793216  42.9273838  50.5915146  58.3027585  44.0226922
  50.5938240  57.5870992  43.7023728  29.6746918  62.6485615  37.8305579
  28.8485035  62.8947352  37.7039857  29.7358909  62.5697695  38.6967637
  29.5621084  62.6730564  37.9394523  34.4545747  65.2662495  35.5324608
  34.7444045  64.8751476  34.8083835  35.1849227  65.4479200  35.9729884
  34.6052631  65.2356309  35.4907415  48.3918101  56.2341644  42.0717845
  48.9426022  55.6009713  42.3114938  48.3762216  56.7657036  42.7633350
  48.4703297  56.2190592  42.2096704  32.3951662  67.2429877  38.5984758
  32.1751958  66.9527232  39.3911425  32.1746184  66.5844832  38.0702670
  32.3299256  67.1029586  38.6373667  31.3068609  59.3303194  40.8640460
  31.0181858  58.7040665  41.3986187  32.1751957  59.2723481  40.9305140
  31.3928861  59.2290738  40.9531414  42.0946507  54.4737977  41.1822442
  41.7511273  53.7528312  41.5329691  42.1939550  54.2651828  40.3400800
  42.0588550  54.3362180  41.1094122  34.5619618  68.6159267  37.3815451
  35.2143676  68.0835710  37.6106477  33.8645227  68.2627920  37.7683325
  34.5550336  68.4848790  37.4727618  31.5100883  60.9698445  36.7882825
  32.2646851  61.3511484  37.0018287  30.9171495  61.4209588  37.2429521
  31.5337596  61.0927272  36.8865703  42.5559536  60.9363681  36.7246430
  43.1217569  61.5956891  36.6404973  41.9087440  61.2813379  37.1962832
  42.5438293  61.0845623  36.7819186  32.8299109  62.1407006  42.1622940
  32.3079863  62.2807298  42.8474805  33.2173130  61.3817670  42.3525058
  32.8102810  62.0492530  42.2924017  39.0266114  63.8802465  36.1483509
  38.7852790  63.1470326  35.7410574  39.2067447  64.4289322  35.4949842
  39.0173738  63.8524857  35.9913732  34.2565435  59.1711025  37.5604431
  34.0608218  59.7785760  36.9664734  34.4799780  58.4778969  37.0796105
  34.2600076  59.1588551  37.4020512  30.3051582  58.4623836  46.7839439
  30.8172679  58.7408089  46.1348199  30.0187924  59.2013130  47.1502253
  30.3386445  58.6126189  46.7429318  44.4894996  57.5997549  40.3443226
  44.4028971  57.7552975  41.1978005  44.0345476  58.2435624  39.9702631
  44.4098253  57.7173304  40.4150333  33.3945595  65.8467786  45.2452796
  33.5435158  65.2870702  44.5926200  34.1745597  65.9259788  45.6285315
  33.5319688  65.7753352  45.2049745  43.7522234  60.9869909  33.5172066
  43.3729043  60.2007047  33.5101356  43.0888479  61.5356766  33.3743710
  43.5980709  60.9514733  33.4952863  35.9198895  66.0182429  46.5237287
  35.8442566  65.3491240  47.0788075  35.8488754  66.7200217  47.0377953
  35.8979502  66.0227336  46.6814135  36.5769142  64.5383428  37.3560893
  37.3419033  64.2693072  37.0343557  36.4747232  64.0533438  38.0730955
  36.6750638  64.4272993  37.4140720  39.0987803  61.5695612  29.3360842
  39.8660788  61.6295737  28.9266694  38.6519112  60.9976053  28.8517160
  39.1461230  61.4932187  29.2038552  41.9982333  63.2315400  33.8523752
  42.0802170  64.0382386  33.5285203  42.4832075  63.2511359  34.5764526
  42.0819491  63.3536062  33.9110651  35.3090530  69.4250749  44.9815287
  35.7986460  68.7261538  44.7990952  34.7374762  69.1274619  45.5691345
  35.2975060  69.2776973  45.0416328  31.0961281  58.4052287  37.9521803
  31.2525900  58.3399090  38.8077795  31.4361874  59.1800840  37.7400482
  31.1694516  58.5101485  38.0476397  37.6340426  57.7810171  36.8215166
  38.1755971  57.2780552  37.2853786  37.9486985  57.7275366  36.0104651
  37.7604823  57.6989592  36.7698978  35.8026875  63.1727522  34.1055194
  35.8719696  62.3142061  34.2448194  36.5815331  63.3899403  33.7774218
  35.9279726  63.0780386  34.0772351  40.1934363  65.5965224  38.3191687
  39.8014155  65.2931939  37.6014553  40.3487435  66.4334314  38.1296641
  40.1587953  65.6749060  38.1848184  40.3574038  62.1615213  38.2597718
  39.9988693  62.3329855  39.0361750  39.8712749  62.6228418  37.7025716
  40.2332735  62.2554184  38.2922987  35.1462403  57.8414378  30.7997952
  35.4354928  58.6179260  31.0741526  35.2334202  57.3303109  31.5012451
  35.2016659  57.8806296  30.9440450  33.1861360  62.2978762  46.8567759
  33.0781715  62.3080825  47.7229818  33.3957142  63.1233543  46.6672713
  33.2011471  62.4219837  46.9571851  31.2035152  59.5491405  44.3189697
  30.6123085  60.1900903  44.2892712  31.9656176  59.9729022  44.2920997
  31.2283413  59.7067243  44.3104844  35.0232647  56.7685613  36.0931966
  35.7674692  57.1559890  36.3314916  35.1693343  55.9243039  36.2572454
  35.1543232  56.7016086  36.1525936  46.2752440  54.1814919  41.3561925
  46.0362210  54.1410754  40.5182709  46.4386341  55.0286071  41.4827646
  46.2642744  54.3007004  41.2515407  28.4611014  61.2225502  45.4623613
  27.9310939  60.5317941  45.5118588  28.7336107  61.2135688  44.6336322
  28.4235736  61.1192634  45.3471029  39.4931105  61.8051205  34.1861296
  40.2165304  62.2709318  34.0425869  39.0531696  61.8724814  33.4358893
  39.5346797  61.8835041  34.0546077  23.7406856  57.8953266  42.8191962
  23.6350305  57.8500111  41.9544046  22.9907076  58.2407047  43.1006247
  23.6142459  57.9394175  42.7329291  32.3351218  54.9975802  32.9211155
  32.9696298  55.5936227  32.8560617  32.4176829  54.6979260  33.7357026
  32.4407769  55.0416710  33.0314242  28.8404206  57.1943643  36.1900701
  29.3496436  57.7908150  36.5712007  29.3138479  56.9269617  35.5077121
  28.9847582  57.2429458  36.1455224  39.7534954  65.8671910  34.3459357
  39.0364264  65.6932772  33.8806594  40.4041692  65.6324482  33.8134843
  39.7436805  65.8067702  34.1988575  42.3382926  54.7436498  38.0900662
  41.6674115  55.2866200  37.9613728  43.0322676  55.2131353  37.8482357
  42.3411793  54.8934769  38.0356190  36.3869659  66.8833210  43.3212420
  36.1635314  66.1252039  43.6896447  35.8979503  66.9131231  42.5992860
  36.2813108  66.7755435  43.2689161  35.0348116  67.1033668  40.7749505
  34.6208515  66.4407798  40.3853347  35.7195490  67.2511527  40.2545199
  35.0746488  67.0274326  40.6406002  38.4013410  66.2623754  41.5273122
  38.0029694  66.3726024  40.7593942  37.7864630  66.4705820  42.1099681
  38.2512300  66.3097322  41.5004421  46.1355253  60.8375720  34.9116212
  46.5188859  61.5867076  35.1414309  45.3399366  61.0841540  34.6528201
  46.0749035  60.9845414  34.9073786  34.9470545  53.5095152  32.4876591
  35.3269509  53.5274781  31.7027706  34.2063141  53.9549141  32.3667439
  34.8939382  53.5776927  32.3540159  24.6373106  55.2417128  42.4910986
  24.4594867  54.7893737  43.2165902  24.3492128  56.0443289  42.6749464
  24.5686059  55.2939685  42.6254489  35.7455299  60.3472658  33.8785381
  34.9366621  60.0239332  33.8318691  36.2530208  59.6405880  33.8113630
  35.7004965  60.1953975  33.8615676  26.3745576  57.7744851  39.6032746
  25.5091095  57.7630542  39.4915517  26.4744392  57.5875074  40.4503885
  26.2619743  57.7450913  39.7121690  32.0002586  67.5442750  43.1762851
  32.3149145  68.3579138  43.1840633  32.4095999  67.1592969  43.8445010
  32.1070684  67.6071452  43.2766943  41.0404090  64.5714110  52.9258735
  41.1501056  63.7822671  53.2815482  41.3694987  64.4820046  52.1233073
  41.1056496  64.4419963  52.8601126  29.3415606  61.4915858  42.8241459
  29.9460463  61.4511693  42.1955280  29.1342919  62.3387010  42.8545515
  29.4004503  61.6103861  42.7357576  24.5766888  60.4750476  42.6940383
  24.4791166  59.6646747  43.0030439  25.3595758  60.4542269  42.3086651
  24.6783025  60.3517566  42.6827246  55.6273029  71.4146655  37.0046573
  55.5967033  72.2691292  37.1764843  56.2254377  71.1141948  37.5632717
  55.7110186  71.4963152  37.1121375  48.8272713  70.5022306  41.7599504
  47.9710609  70.6630805  41.8108620  48.8740367  69.6314370  41.7804565
  48.7071825  70.3973108  41.7705570  43.2113853  80.0385024  37.5236735
  42.4596753  79.6600562  37.2952780  43.6599865  80.0703458  36.7755545
  43.1663520  79.9870631  37.3794237  52.1366430  76.7708832  51.3659960
  52.8433197  76.2760863  51.4946894  52.3254365  77.2117913  50.6362618
  52.2694336  76.7627182  51.2769005  48.6638813  80.4610394  32.9522282
  48.3290181  81.1387315  32.5166504  49.1765683  80.0715705  32.3639154
  48.6904394  80.5034972  32.8009074  48.2043104  82.4124662  38.8933394
  48.5882484  82.9811561  38.3538169  48.1402245  81.6874173  38.4139210
  48.2516531  82.3900126  38.7427256  51.6724534  72.5614350  44.4031155
  52.2180494  73.2399437  44.4625125  51.6141411  72.4201811  43.5432737
  51.7440449  72.6406352  44.2843216  44.7898609  80.0503416  39.7899508
  44.8908972  79.2403770  40.0996635  44.1940355  79.9560363  39.1599186
  44.7171148  79.9168444  39.7425746  53.4489603  73.9898957  35.2764883
  53.3329129  74.7406643  35.7057021  54.2445490  73.7322911  35.5260970
  53.5494192  74.0633804  35.3768975  44.6299349  84.9681005  41.1914364
  45.2736804  85.4094170  41.5810522  44.9555604  84.1634432  41.1044622
  44.7731178  84.9146200  41.2359841  37.9863654  76.0723703  39.4151841
  37.7513838  75.2391355  39.3084110  38.1249294  76.3528369  38.6013042
  37.9719316  75.9907206  39.2794196  40.2853741  68.2409434  42.3136149
  39.6658773  67.6502081  42.1446164  40.1837605  68.8320869  41.6800472
  40.1791416  68.2413516  42.1941139  45.3319929  77.9792980  36.5634225
  45.6535770  78.5198188  35.9595534  45.9792025  77.4089752  36.6956515
  45.4745984  77.9752155  36.4941261  47.3821637  69.9808975  36.6468612
  48.0801801  70.1597103  37.1390075  47.6973969  69.4579315  36.0239001
  47.5316974  69.9302747  36.6270622  40.0122874  71.7861715  44.5579718
  39.8881571  72.3724161  45.1929537  40.6641159  71.2921911  44.8591993
  40.0896523  71.8000520  44.6965647  47.5709572  76.3679420  36.6348404
  48.0103207  75.7596521  37.0803176  47.4214235  75.9886794  35.8633869
  47.6131038  76.2217891  36.5867571  45.0381215  74.9623432  43.8367229
  45.6830218  74.4695875  43.5178178  45.2782992  75.1048219  44.6633307
  45.1691800  74.9100874  43.9116762  47.5767306  77.8078338  43.4874122
  47.8590549  77.0129744  43.2660878  48.3053467  78.2858925  43.5079183
  47.7256870  77.7612935  43.4577137  45.5548500  65.3501372  40.7289887
  45.2251830  65.8012516  40.0593586  44.8793502  65.2717535  41.2762893
  45.4058937  65.4052507  40.7113110  51.1718909  74.7206602  33.5879173
  51.0870204  75.5767568  33.7328742  51.6603292  74.4450926  34.2561332
  51.2307806  74.8063923  33.7081254  52.7624908  61.3386895  38.9739497
  52.4478349  62.0290373  39.4059920  52.2451850  61.2831677  38.2724998
  52.6389378  61.4321783  38.9336447  52.1037342  71.3391396  35.0876908
  51.5748813  71.5551029  35.7474214  52.6262362  72.0327534  35.0077877
  52.1025795  71.4734533  35.1732507  57.5585395  76.9137700  40.4609952
  56.7283098  77.1248344  40.6243369  57.5094647  76.0874755  40.1852236
  57.4292130  76.8227307  40.4447318  43.9936950  75.2354613  33.8884376
  43.4094165  75.7404644  34.2950240  43.5907045  75.0096999  33.1480968
  43.8476253  75.2762861  33.8389401  39.5480978  80.9509374  40.6908048
  39.0648556  81.6759863  40.6667631  40.3604296  81.2485504  40.8018205
  39.5971726  81.1011727  40.7035327  45.6195132  79.7441554  43.2957862
  45.1022074  79.3848969  42.6919170  46.3169524  79.2203729  43.3063928
  45.6460713  79.6139242  43.2088121  49.2758724  80.1936368  49.2574035
  49.3642070  80.0062509  50.1052245  49.7048437  79.5473798  48.8578882
  49.3520827  80.0699376  49.3245786  46.8429184  79.4767528  48.2391697
  46.2800019  79.0640138  48.7631358  47.6050208  79.4020434  48.6584840
  46.8723633  79.4044929  48.3784698  48.4514164  71.4820265  32.3653297
  48.6910168  71.6898248  31.5528640  48.7730005  70.6777773  32.4742241
  48.5351322  71.3934366  32.2613850  43.7604454  63.4113660  36.2112834
  44.5150422  63.7791977  35.9729885  43.5831989  63.7853215  36.9792014
  43.8458933  63.5211848  36.2897723  42.4025175  81.4665550  40.8428327
  43.1045755  80.9517539  40.9001084  42.3222659  81.7939701  41.6475202
  42.4948936  81.4379776  40.9701120  57.0539353  69.5608101  44.2560374
  56.2167774  69.6310288  44.4907968  57.0227584  69.5632596  43.3834676
  56.9257635  69.5718328  44.1619922  43.4504082  71.7041137  49.9708742
  43.6224586  71.5947031  50.8194024  43.9873440  72.3495542  49.7339935
  43.5549086  71.7833138  50.0613839  42.1161519  65.8183979  32.9090947
  41.9337092  66.0355860  32.0831940  42.9787132  65.9322992  32.9649562
  42.2166108  65.8673877  32.7945435  41.7275951  77.6571902  40.3513935
  42.5664850  77.8894834  40.3987697  41.7587720  76.7876213  40.2820971
  41.8557668  77.5628848  40.3478580  42.3528654  78.0772777  44.6527241
  42.8926879  77.9343908  45.3230613  41.6698600  78.4769528  45.0211267
  42.3320808  78.1152448  44.8061663  47.7961238  62.8210390  35.9439971
  48.5247399  62.6426345  35.4978128  47.8856131  63.6628470  36.1547149
  47.9167900  62.9194268  35.9093489  51.7769539  73.7563777  39.8472265
  52.5327054  74.1895292  39.8861174  51.8831863  73.1068547  40.4206901
  51.9039709  73.7241261  39.9370291  54.8149710  77.5837055  40.5974668
  54.3784942  77.5873797  41.3533640  54.4812625  78.2642554  40.1654246
  54.7012330  77.6849510  40.6455501  49.3878784  79.6245387  51.9217819
  50.1719200  79.7376235  52.2873561  49.1875378  78.7986525  52.1176504
  49.4744809  79.5192107  52.0052205  37.7565799  74.2973068  44.8061662
  37.4904214  73.4812184  44.9652653  37.7704363  74.3426223  43.9357178
  37.7190521  74.1829972  44.7015144  54.7347193  64.6250882  42.8404096
  55.3773101  64.6948987  43.4266011  54.9870214  63.9580105  42.3383638
  54.8669325  64.5377231  42.8531375  41.6623546  69.0958152  31.4213421
  40.9481723  68.8096331  31.8335853  42.1467515  69.4354778  32.0619808
  41.6282909  69.1039802  31.5769055  42.5064405  67.8351446  47.4528670
  41.8136202  67.3648426  47.6989402  43.1224733  67.6089750  48.0270377
  42.4948935  67.7318578  47.5737823  49.5449177  81.5355490  45.5684274
  48.7464423  81.2954990  45.8258143  49.9935188  81.5869882  46.3151322
  49.4923788  81.5077881  45.7169198  57.9494056  74.3017975  39.4894305
  58.6110490  73.7408643  39.3890214  57.3085468  73.8070005  39.8146997
  57.9522924  74.1454384  39.5226646  48.8370864  77.5988106  31.7975229
  49.2522012  77.2673130  31.1059724  48.0062793  77.3657008  31.6695365
  48.7758873  77.5159362  31.6766076  38.1659213  75.0831847  42.0873407
  37.9834786  75.0578733  41.2345699  38.9008882  75.5530785  42.1262315
  38.2473277  75.1493209  41.9671325  54.2358887  75.3183357  39.2306294
  54.4714476  75.4628556  38.4033145  54.3848450  76.0825765  39.6237808
  54.2924690  75.4522411  39.1669898  41.2304964  71.8016850  48.5955515
  41.9544937  71.7869880  49.0820410  41.3321101  72.5112205  48.0977484
  41.3523173  71.9041553  48.5934302  56.0649344  74.1585023  37.0675898
  56.3957561  74.6912663  36.4615993  56.6382432  74.2123911  37.7237849
  56.1983023  74.2454592  37.0753680  48.6049914  75.2815934  53.4604462
  47.8122895  75.5959446  53.6457082  48.7198841  75.4967403  52.6225247
  48.5045324  75.3599771  53.3642797  51.2781233  72.0049926  37.7499478
  51.3728087  72.7439220  38.2039104  50.6540076  71.5767401  38.1834043
  51.1990263  72.0511246  37.8807626  49.5333707  75.1836138  48.3989759
  50.1072568  74.5463382  48.5538323  49.4548510  75.1840221  47.5299417
  49.6066941  75.0901250  48.2936170  38.1330123  71.9625348  42.2372473
  38.7103626  71.8261798  42.8764719  37.4344185  71.5061132  42.4918058
  38.1151144  71.8747614  42.3694763  51.5304254  73.8498665  30.9836430
  51.4484417  73.9200852  31.8491417  52.1683974  74.4128409  30.7920171
  51.6124091  73.9437636  31.0826380  44.8897425  73.6159403  40.4510957
  44.6316669  72.7831138  40.4242256  44.9445908  73.8417016  39.6103457
  44.8597203  73.5257175  40.3231093  49.9698475  65.7187854  40.5515049
  49.2654802  65.2297039  40.7098968  50.0183450  65.7310328  39.6803494
  49.8728527  65.6477502  40.4454389  43.8632137  71.1697166  40.9375851
  43.2881729  71.3289334  41.5739812  43.4867814  70.5332575  40.4744302
  43.7234950  71.0994979  40.9630410  47.5305426  69.6420515  45.7968230
  47.1419859  69.2174733  45.1420421  46.8660124  69.8902665  46.3045256
  47.3752354  69.6159236  45.7756098  57.1728695  69.3995520  38.5716060
  56.9165260  68.5875461  38.3813943  58.0158009  69.4073087  38.3446247
  57.2594720  69.2807517  38.5100877  33.6088956  70.8137241  38.9520292
  33.6949208  70.4369109  39.7333822  34.2364754  70.4397686  38.4740250
  33.7145507  70.7022723  38.9965769  51.3531787  63.3395144  43.3092214
  51.7342299  62.6573315  43.6960088  50.5495072  63.0504746  43.1267878
  51.2908249  63.1962192  43.3396270  48.6344364  73.8719120  33.9945037
  49.4485003  74.1634012  33.8827808  48.5703505  73.2178982  33.4203330
  48.7447103  73.8184314  33.8933874  54.8553854  76.5545116  48.4074612
  54.6192492  75.7233181  48.2886673  55.4997083  76.5030723  48.9929456
  54.9148525  76.4242804  48.4760506  44.5052272  77.3440637  39.1217349
  45.1426219  77.1052385  39.6669142  44.9307344  77.5477796  38.3870509
  44.6628439  77.3391647  39.0934506  39.1964915  79.5828974  43.0051653
  39.2369060  79.8543825  42.1771432  39.7559439  80.1070882  43.4209440
  39.2848261  79.7004729  42.9443541  45.1455087  72.5642927  33.4592238
  45.5300240  72.3450634  34.2108783  44.8966708  73.3905872  33.5893314
  45.1657160  72.6541073  33.5893315  45.3123628  65.8449342  53.1754822
  44.9977069  66.6148905  52.9124385  44.9913560  65.2819598  52.5907049
  45.2182547  65.8759611  53.0496172  55.8790275  76.3389565  44.4702907
  55.5736092  77.0717621  44.8316222  55.1596491  75.9327494  44.1895693
  55.7277617  76.3871298  44.4816044  46.8873744  77.8213060  40.8011135
  46.9612753  77.6588232  41.6552985  47.7043251  78.0103249  40.5571617
  47.0190103  77.8249802  40.8909161  61.5792067  72.9782565  43.7971251
  61.5116567  72.9978524  42.9273838  61.5647730  73.8212892  44.0226922
  61.5670824  73.1056300  43.7023728  40.6479501  78.1670923  37.8305579
  39.8217619  78.4132660  37.7039857  40.7091492  78.0883003  38.6967637
  40.5353668  78.1915872  37.9394523  42.8655525  64.2339864  38.7901019
  41.9977950  64.3062463  38.8558628  43.1530729  65.0361942  38.9788994
  42.7795273  64.3634011  38.8275785  51.9888414  64.3817723  47.1212340
  52.7342006  64.1927533  46.7075766  51.5725718  64.9075961  46.5626197
  52.0373388  64.4319868  46.9776914  45.4278330  80.7847803  35.5324608
  45.7176629  80.3936784  34.8083835  46.1581811  80.9664508  35.9729884
  45.5785214  80.7541617  35.4907415  59.3650684  71.7526951  42.0717845
  59.9158606  71.1195020  42.3114938  59.3494800  72.2842344  42.7633350
  59.4435881  71.7375900  42.2096704  46.0173075  75.5865549  46.6177739
  45.5184769  76.2981316  46.6962627  46.8273300  75.9066215  46.5795901
  46.0629182  75.7392397  46.6234307  43.3684246  82.7615185  38.5984758
  43.1484541  82.4712540  39.3911425  43.1478768  82.1030140  38.0702670
  43.3031840  82.6214894  38.6373667  42.2801193  74.8488502  40.8640460
  41.9914442  74.2225973  41.3986187  43.1484541  74.7908789  40.9305140
  42.3661445  74.7476046  40.9531414  53.0679091  69.9923285  41.1822442
  52.7243857  69.2713620  41.5329691  53.1672133  69.7837136  40.3400800
  53.0321134  69.8547488  41.1094122  45.5352201  84.1344575  37.3815451
  46.1876259  83.6021017  37.6106477  44.8377810  83.7813227  37.7683325
  45.5282919  84.0034098  37.4727618  42.4833466  76.4883753  36.7882825
  43.2379434  76.8696792  37.0018287  41.8904079  76.9394896  37.2429521
  42.5070180  76.6112580  36.8865703  53.5292120  76.4548989  36.7246430
  54.0950152  77.1142199  36.6404973  52.8820023  76.7998687  37.1962832
  53.5170876  76.6030930  36.7819186  44.9440133  68.4446593  51.9140037
  44.1339909  68.7504373  51.8029879  45.4214820  69.1652175  52.0292621
  44.8943612  68.5961194  51.9147108  43.8031693  77.6592314  42.1622940
  43.2812446  77.7992606  42.8474805  44.1905713  76.9002978  42.3525058
  43.7835394  77.5677838  42.2924017  40.7922877  67.7098123  36.2317895
  40.5047673  67.3399393  35.4949842  41.4793345  68.1792978  35.9701600
  40.8511774  67.7245092  36.0832971  49.9998698  79.3987773  36.1483509
  49.7585374  78.6655634  35.7410574  50.1800031  79.9474630  35.4949842
  49.9906322  79.3710165  35.9913732  45.2298018  74.6896333  37.5604431
  45.0340801  75.2971068  36.9664734  45.4532364  73.9964277  37.0796105
  45.2332660  74.6773859  37.4020512  43.6276549  71.5751071  37.6785300
  44.3499200  71.7392229  37.2189106  43.1484541  72.2960736  37.5724639
  43.6640279  71.7049301  37.5950914  51.5870056  67.9114870  43.0581985
  50.7481157  67.9376149  42.8220248  51.6574423  68.5585605  43.6387331
  51.4738450  68.0110996  43.1091101  41.2784165  73.9809143  46.7839439
  41.7905262  74.2593397  46.1348199  40.9920508  74.7198438  47.1502253
  41.3119028  74.1311497  46.7429318  50.0339334  64.8100247  37.7909600
  50.7365687  64.6107995  37.3129559  49.7683523  64.0376189  38.0978444
  50.0985967  64.6663213  37.7655042  55.4627580  73.1182857  40.3443226
  55.3761554  73.2738283  41.1978005  55.0078060  73.7620932  39.9702631
  55.3830837  73.2358612  40.4150333  38.3651072  68.4879335  37.0803176
  38.4667208  69.2905497  37.4084151  39.1606958  68.2866671  36.7826257
  38.4978977  68.5765234  37.0838531  44.7967891  66.0735532  46.8440481
  44.6051088  66.0890666  47.6939905  45.6466487  66.2699206  46.8207136
  44.8943613  66.1049883  46.9663776  39.1814804  68.6026514  44.8224298
  39.0400295  67.7510454  44.9468806  39.4655367  68.6455174  43.9986504
  39.2022650  68.4826264  44.7191922  49.3353396  70.4393604  38.9668786
  49.0888110  70.3589355  39.8005575  49.6638519  69.6547072  38.7731313
  49.3474640  70.3119869  39.0616309  53.2301445  77.1476963  42.7555567
  53.0915804  77.8458009  43.2604309  52.4501443  76.9925620  42.3991749
  53.0944672  77.2277130  42.7781841  51.5679530  73.4473338  49.0077949
  51.5627568  72.5753155  49.0120375  52.2740524  73.6461508  48.5347404
  51.6724534  73.3477213  48.9384984  45.2950423  73.1750322  48.3791769
  45.4393799  73.7551530  47.7434879  45.6426072  73.5526619  49.0841624
  45.3677885  73.3171026  48.3890764  47.4670341  72.3740491  46.1616900
  46.7193655  72.5671505  45.7565179  47.6211866  71.5485710  45.9241022
  47.3792768  72.2805602  46.0662306  44.3678178  81.3653094  45.2452796
  44.5167742  80.8056010  44.5926200  45.1478180  81.4445096  45.6285315
  44.5052272  81.2938660  45.2049745  54.7254818  76.5055217  33.5172066
  54.3461626  75.7192355  33.5101356  54.0621063  77.0542074  33.3743710
  54.5713292  76.4700041  33.4952863  46.8931479  81.5367737  46.5237287
  46.8175150  80.8676548  47.0788075  46.8221338  82.2385525  47.0377953
  46.8712086  81.5412644  46.6814135  47.7072118  66.2691041  47.0512304
  48.1644732  67.0015016  47.1785096  47.7828446  65.8457507  47.8099560
  47.7863087  66.3148279  47.1813381  39.9505109  66.5156861  48.1401748
  39.4147298  65.9037219  48.4562515  40.0122874  67.0904997  48.7935415
  39.8800742  66.5103789  48.2837175  52.1799444  59.4480917  40.9206147
  52.2983012  59.9057380  40.1873450  52.0061619  58.6426178  40.6342365
  52.1718615  59.3974689  40.7707081  47.5501726  80.0568736  37.3560893
  48.3151617  79.7878380  37.0343557  47.4479816  79.5718746  38.0730955
  47.6483221  79.9458301  37.4140720  45.5854496  68.2593145  43.8954128
  44.7950570  68.0784605  44.2171464  45.9815118  67.4820098  43.8784423
  45.5271372  68.1180606  43.9406677  50.0720386  77.0880920  29.3360842
  50.8393371  77.1481045  28.9266694  49.6251695  76.5161361  28.8517160
  50.1193814  77.0117495  29.2038552  50.9698182  75.8935576  41.6213574
  50.2943184  75.6620808  42.1226961  50.9790558  75.2856758  40.9955679
  50.8716686  75.7694501  41.6029726  48.0992326  70.7353404  48.3777627
  48.0351467  71.5963361  48.2497764  48.2389514  70.4185398  47.5773178
  48.1107796  70.8153571  48.2405840  52.9714916  78.7500708  33.8523752
  53.0534754  79.5567694  33.5285203  53.4564659  78.7696667  34.5764526
  53.0552074  78.8721370  33.9110651  46.7811420  73.4285544  42.5193830
  46.3573669  73.6290043  41.7832848  46.6056275  72.5814392  42.6318130
  46.6922300  73.3334325  42.4267520  46.2823113  84.9436057  44.9815287
  46.7719043  84.2446846  44.7990952  45.7107345  84.6459927  45.5691345
  46.2707643  84.7962280  45.0416328  42.0693865  73.9237595  37.9521803
  42.2258484  73.8584398  38.8077795  42.4094458  74.6986148  37.7400482
  42.1427100  74.0286793  38.0476397  48.6073009  73.2995479  36.8215166
  49.1488555  72.7965860  37.2853786  48.9219568  73.2460673  36.0104651
  48.7337406  73.2174900  36.7698978  52.4790117  77.5098126  53.9342078
  53.2924982  77.2383275  54.0947211  52.3185083  77.2105666  53.1302274
  52.5760065  77.4253052  53.8387484  46.7759459  78.6912830  34.1055194
  46.8452279  77.8327369  34.2448194  47.5547914  78.9084711  33.7774218
  46.9012309  78.5965694  34.0772351  49.7562279  68.1931783  46.8737466
  49.9704248  67.5542698  46.3200820  49.1396178  68.6377607  46.4445328
  49.6967608  68.1641927  46.7287897  51.1666947  81.1150532  38.3191687
  50.7746738  80.8117247  37.6014553  51.3220019  81.9519622  38.1296641
  51.1320536  81.1934368  38.1848184  38.6428126  71.1072546  38.2682570
  39.0227091  71.5257091  37.6042837  38.0683491  71.6886001  38.5751413
  38.6139451  71.2550405  38.2159311  51.9201367  69.8020849  47.8120773
  51.1078048  69.4946739  47.8933946  52.3791301  69.3219849  48.3763486
  51.8681751  69.6857341  47.9075368  51.3306621  77.6800520  38.2597718
  50.9721276  77.8515163  39.0361750  50.8445332  78.1413726  37.7025716
  51.2065318  77.7739492  38.2922987  49.1477007  61.3031719  41.8624809
  48.2770565  61.2770440  41.8158119  49.4017349  61.1308911  41.0450655
  49.0570567  61.2741863  41.7344946  46.1194987  73.3599686  30.7997952
  46.4087512  74.1364568  31.0741526  46.2066786  72.8488417  31.5012451
  46.1749243  73.3991604  30.9440450  49.0154874  71.2080920  52.5949476
  49.4854505  71.8323036  52.9817350  49.0616754  70.5397895  53.1542690
  49.0922750  71.2015600  52.7349547  46.1726148  63.3137947  43.3198279
  45.6564636  62.6218139  43.4449858  45.6120077  63.9808724  43.2660878
  46.0132661  63.3101205  43.3304345  48.2418381  63.8530907  45.1491132
  47.8550134  63.8779939  45.9304662  47.7551319  63.2872586  44.6965649
  48.1130890  63.7726658  45.1979036  52.4911361  78.5704416  49.2064919
  53.1291081  78.0764612  48.8727375  51.8485452  78.4981817  48.6217145
  52.4905587  78.4863425  49.0707274  54.2168361  70.4193562  43.7730834
  53.7895969  70.3319911  43.0178934  53.5794414  70.5271338  44.3585678
  54.0597968  70.4226222  43.7476276  47.9075523  60.7397893  47.4401392
  48.5368641  61.2758193  47.1622462  48.0761386  60.6475252  48.2914958
  48.0253318  60.8059255  47.5249920  47.7089438  65.5269088  49.7127804
  48.5362867  65.2554237  49.7686418  47.7297284  66.3229929  50.0691622
  47.8342288  65.6048842  49.7742986  52.5465617  79.2624225  45.8470275
  53.3357995  78.9113289  45.9672357  52.7209215  80.0760613  45.5846909
  52.6885899  79.3310082  45.8258143  42.2858928  72.6732950  42.8998064
  41.4446934  72.5736825  43.1076958  42.4948936  73.4428431  43.2512385
  42.1923620  72.7724994  42.9825379  39.7634495  70.2952487  40.7282815
  39.3691192  70.3695499  39.9532924  39.2074612  70.6810434  41.2791177
  39.6237307  70.3634262  40.6950475  51.3999441  63.2733781  40.4086694
  51.6049035  63.2056089  41.2543691  51.0725865  64.0792603  40.3407871
  51.3814689  63.3819722  40.5246349  46.0975593  70.6014350  42.1495662
  45.7938730  70.0470338  42.7506069  45.3955013  70.7806560  41.6623696
  45.9491802  70.5459132  42.1665367  45.1541690  67.9114869  36.7140364
  45.4301424  67.1933782  36.3017931  45.7540359  68.5099789  36.5061470
  45.2834954  67.8935240  36.6221125  44.1593944  77.8164070  46.8567759
  44.0514299  77.8266132  47.7229818  44.3689725  78.6418851  46.6672713
  44.1744055  77.9405145  46.9571851  54.6533129  63.8265546  39.8889459
  54.0407443  64.3135948  40.2743191  54.7497304  63.1509037  40.4327110
  54.5771027  63.7983854  40.0268317  48.6552210  65.5828387  34.9886959
  49.1095957  65.7538947  35.7134803  49.1292256  64.9696497  34.5884734
  48.7920530  65.5179272  35.0360720  42.1767736  75.0676713  44.3189697
  41.5855669  75.7086211  44.2892712  42.9388759  75.4914330  44.2920997
  42.2015996  75.2252551  44.3104844  42.5728358  66.2278710  44.9857715
  43.0329840  66.3017640  45.7232838  42.6184465  67.0259965  44.6357536
  42.6478914  66.3572858  45.0430471  44.2211708  66.8945405  49.5529742
  43.8297273  66.2478752  49.9885520  44.3897571  67.4856841  50.1723997
  44.1882618  66.8859673  49.7092448  58.2958157  74.8982482  45.3166975
  58.3541281  75.3469131  46.0626952  57.6624625  75.3081295  44.8797055
  58.2109452  75.0256217  45.3619524  51.9357252  80.5186024  41.7521721
  51.7376940  81.0076839  41.0577933  51.3144963  80.7227266  42.3305855
  51.8144816  80.6202563  41.7344945  45.9965230  72.2870921  36.0931966
  46.7407275  72.6745197  36.3314916  46.1425926  71.4428347  36.2572454
  46.1275815  72.2201394  36.1525936  47.9144806  64.0821180  41.1263827
  47.0680851  64.2543988  41.0005177  47.9115938  63.2770524  41.4629656
  47.7891956  63.9882209  41.1574954  48.9843106  67.8596394  41.9925885
  48.5103060  67.3338157  42.5031196  49.3561242  67.3125867  41.4240747
  48.9692995  67.7012391  41.9841032  39.3616136  69.8567901  47.3609431
  40.2241749  69.7563610  47.2746761  39.0307919  69.2762610  46.7995003
  39.4401333  69.7559528  47.2654837  55.2479837  72.9198770  43.4032666
  55.0078060  72.0805185  43.4075092  55.7271844  72.9998937  44.1273439
  55.2832020  72.8080170  43.5107468  50.9126606  68.7532949  35.0551639
  50.3849624  68.8361693  34.3657348  51.3722314  69.4950821  35.0516284
  50.9028456  68.8753611  34.9526334  57.2485024  69.7000227  41.3561925
  57.0094794  69.6596061  40.5182709  57.4118925  70.5471379  41.4827646
  57.2375327  69.8192312  41.2515407  53.8531054  74.0850177  47.2866970
  54.5765253  73.6322703  47.1077990  53.5881016  74.3654842  46.5039298
  53.9212327  74.0601145  47.1445685  42.7217922  68.6810350  44.0219849
  42.0970992  68.6928742  43.4145802  42.3863517  69.1570525  44.6711089
  42.5803414  68.7528867  44.0276418  42.9059671  67.0235469  30.0792534
  42.5572475  67.6755194  30.5424083  42.4256117  67.0092582  29.3516405
  42.7829915  67.1178522  30.0403625  39.4343598  76.7410810  45.4623613
  38.9043522  76.0503249  45.5118588  39.7068691  76.7320996  44.6336322
  39.3968320  76.6377942  45.3471029  50.4663688  77.3236513  34.1861296
  51.1897887  77.7894626  34.0425869  50.0264279  77.3910122  33.4358893
  50.5079380  77.4020349  34.0546077  49.6349843  74.1834055  45.4361985
  49.0206836  73.6392105  45.7310620  50.1517128  73.6698291  44.9567801
  49.6205506  74.0270464  45.4086213  48.8746140  75.2538325  43.1706284
  48.4473748  74.6288044  42.7371719  48.8671085  74.9713247  43.9965291
  48.8105282  75.1191106  43.2286111  41.9908668  70.2903498  46.2394718
  42.1502154  69.5346822  46.6446439  41.8101561  70.8394438  46.8935455
  41.9874027  70.2597312  46.3957424  47.2031850  66.1307079  43.3848818
  47.2274337  65.5967192  42.6961598  47.4543324  65.6224388  44.0474408
  47.2441769  65.9767983  43.3813462  34.7139440  73.4138574  42.8191962
  34.6082889  73.3685419  41.9544046  33.9639660  73.7592355  43.1006247
  34.5875043  73.4579483  42.7329291  43.4833172  64.8577898  42.7654562
  43.5231544  65.3587104  43.4789269  42.6582837  64.9488291  42.4960485
  43.3672698  64.9459714  42.8305100  45.6662785  74.4238638  50.8674856
  44.8158416  74.5610352  51.0032501  45.8290913  73.6902416  51.3122558
  45.5646649  74.3352739  50.9530456  44.9047536  71.3738408  45.0628461
  44.0739465  71.5412225  44.8563709  44.8499053  70.9974358  45.8477346
  44.7736951  71.3428139  45.1476989  42.7131319  64.8647300  50.6984872
  43.3384022  64.3209433  50.9714304  42.2581799  64.3842218  50.1292662
  42.7379580  64.7136782  50.6546465  43.2783580  69.6493999  35.5918579
  43.4186541  70.1466463  36.2947220  43.7766112  68.9480293  35.7332792
  43.3724661  69.6195978  35.7170158  43.3083802  70.5161110  32.9211155
  43.9428881  71.1121535  32.8560617  43.3909413  70.2164568  33.7357026
  43.4140353  70.5602018  33.0314242  56.2866368  73.0476587  45.7897520
  56.8784208  73.6873838  45.8215718  56.7225362  72.3499624  46.0789586
  56.4384799  73.0394938  45.8378352  44.8862785  66.4475085  32.8956597
  45.2078626  65.9678168  32.2415860  45.1489729  67.2574732  32.7047409
  44.9728810  66.4964983  32.7712089  48.1159758  77.4693960  46.4155414
  47.6084849  78.0229807  46.8596044  47.8186404  77.5302250  45.5974188
  47.9964643  77.5600271  46.3603870  50.2821940  65.8347279  45.2580077
  50.7077011  65.3819806  44.6463603  49.6678933  65.2807350  45.5344864
  50.2550585  65.6861256  45.2085102  39.8136790  72.7128951  36.1900701
  40.3229019  73.3093458  36.5712007  40.2871062  72.4454924  35.5077121
  39.9580166  72.7614766  36.1455224  50.7267538  81.3857218  34.3459357
  50.0096848  81.2118080  33.8806594  51.3774276  81.1509790  33.8134843
  50.7169388  81.3253010  34.1988575  53.3115509  70.2621806  38.0900662
  52.6406699  70.8051508  37.9613728  54.0055259  70.7316661  37.8482357
  53.3144377  70.4120077  38.0356190  47.3602243  82.4018518  43.3212420
  47.1367897  81.6437347  43.6896447  46.8712086  82.4316539  42.5992860
  47.2545692  82.2940743  43.2689161  53.4743637  66.7177690  40.9991035
  53.8271247  66.2907413  41.6736834  52.6158438  66.6328533  41.1292112
  53.3993081  66.6422430  41.1186046  42.1727322  69.3485209  39.0573882
  41.4539311  69.7649342  39.3246745  42.5439684  69.9139448  38.5065520
  42.1219253  69.4934491  39.0156689  51.4726902  69.9813058  44.9475878
  51.4524830  69.7996353  45.8010656  51.5206103  70.8525077  44.9235461
  51.4761543  70.0829597  45.0699172  49.4173232  76.5700250  50.8724354
  49.3769087  75.9249927  50.2869510  50.2296551  76.5136868  51.1849766
  49.5316386  76.4659217  50.8321303  46.0080700  82.6218976  40.7749505
  45.5941098  81.9593106  40.3853347  46.6928074  82.7696835  40.2545199
  46.0479072  82.5459634  40.6406002  49.3745994  81.7809061  41.5273122
  48.9762277  81.8911332  40.7593942  48.7597214  81.9891128  42.1099681
  49.2244883  81.8282629  41.5004421  47.9473896  68.3883209  34.3947261
  47.3538735  68.7100206  33.8431828  47.9849174  67.5424305  34.1868367
  47.8648285  68.3107538  34.2830033  54.9067697  61.8396102  41.9275348
  54.3998561  61.1325241  41.8596525  55.7035130  61.5089290  42.0576424
  54.9494936  61.6869253  41.9374343  50.8231713  68.3462714  37.8249012
  50.5945406  68.3695415  36.9827370  51.0829789  67.5220181  37.9444022
  50.8277901  68.2278794  37.7174209  45.1050941  70.1997187  47.4274112
  44.5929844  69.5918370  47.7859143  44.9330437  70.9153779  47.8948088
  45.0040578  70.2160486  47.5490335  39.9516656  68.6434762  50.0776474
  39.7819246  69.3036137  49.5324680  39.5082606  68.8541323  50.7988963
  39.8615989  68.7720744  50.1038103  43.8776475  66.8839260  39.1203207
  44.3533841  67.2456340  38.4853388  43.3765075  67.5395728  39.4003350
  43.8741834  67.0333449  39.0679948  57.1087837  76.3561028  34.9116212
  57.4921442  77.1052384  35.1414309  56.3131950  76.6026848  34.6528201
  57.0481619  76.5030722  34.9073786  48.9820011  68.1221431  49.8676367
  49.5391441  67.8935241  49.2354833  48.6581076  68.8827097  49.5911580
  49.0166421  68.2005268  49.7332864  36.8518720  71.5481628  45.3364963
  36.3045440  70.8782273  45.4545832  37.6411098  71.1811476  45.4008431
  36.8870904  71.3946614  45.3633664  46.7003129  71.2089085  50.8328374
  47.4514456  71.5240762  51.1467929  46.8925705  71.0068256  50.0062296
  46.8394543  71.2256467  50.7571770  45.9203128  69.0280460  32.4876591
  46.3002093  69.0460089  31.7027706  45.1795724  69.4734449  32.3667439
  45.8671966  69.0962235  32.3540159  53.5488419  67.3362651  38.0752170
  53.5482645  67.1811308  38.9336446  53.3444599  68.1825638  38.0193555
  53.5188197  67.4383272  38.1940109  35.6105690  70.7602436  42.4910986
  35.4327451  70.3079045  43.2165902  35.3224712  71.5628597  42.6749464
  35.5418643  70.8124993  42.6254489  51.2729271  72.0160153  41.7288377
  51.7682936  71.2983148  41.6892397  50.4629047  71.7130951  41.6142864
  51.2273164  71.8657799  41.7062103  46.7187882  75.8657966  33.8785381
  45.9099205  75.5424640  33.8318691  47.2262791  75.1591188  33.8113630
  46.6737549  75.7139283  33.8615676  37.3478160  73.2930159  39.6032746
  36.4823679  73.2815850  39.4915517  37.4476975  73.1060382  40.4503885
  37.2352327  73.2636221  39.7121690  53.3381090  74.7663840  44.4165506
  53.7636161  74.2438262  43.8635931  52.9738009  75.3644678  43.8954128
  53.3467692  74.7774067  44.2574515  42.9735169  83.0628058  43.1762851
  43.2881728  83.8764446  43.1840633  43.3828583  82.6778277  43.8445010
  43.0803267  83.1256760  43.2766943  49.9259689  78.4798105  40.7466663
  50.3970867  79.1938367  40.9156648  50.2619868  77.8796855  41.2826532
  50.0454804  78.4969569  40.8499039  52.0136674  80.0899418  52.9258735
  52.1233639  79.3007979  53.2815482  52.3427570  80.0005354  52.1233073
  52.0789079  79.9605271  52.8601126  46.8429184  63.2525575  47.7024758
  46.9757090  62.4556569  48.0305733  47.2274337  63.7791978  48.2823033
  46.9185513  63.2125492  47.8368261  50.5633635  78.2716039  47.5094356
  50.0154581  77.6473922  47.2414421  51.0246664  78.4610311  46.7938435
  50.5500845  78.2075089  47.3644787  49.9161539  60.1755901  44.3005851
  49.1107503  60.0653631  44.6173689  49.7868275  60.2768357  43.4435717
  49.7781672  60.1739571  44.2213891  53.3727500  66.3401393  44.8945548
  52.7890489  66.8410600  44.4823115  53.6931794  65.8330949  44.2609871
  53.3340675  66.3393228  44.7404055  45.9122299  65.2541988  35.1704223
  46.7337993  65.4240301  34.9285918  45.4491950  65.4089249  34.4470520
  45.9653461  65.3023721  35.0275867  40.3148190  77.0101166  42.8241459
  40.9193047  76.9697000  42.1955280  40.1075502  77.8572318  42.8545515
  40.3737087  77.1289169  42.7357576  50.1291962  79.2767112  44.0403697
  50.9490336  79.1330078  44.3019992  49.8486039  79.9013310  44.5820135
  50.2088705  79.3477464  44.1591636  35.5499472  75.9935784  42.6940383
  35.4523750  75.1832055  43.0030439  36.3328342  75.9727577  42.3086651
  35.6515608  75.8702874  42.6827246  59.8005297  86.0207614  41.7599504
  58.9443192  86.1816112  41.8108620  59.8472951  85.1499678  41.7804565
  59.6804408  85.9158416  41.7705570  51.2586325  83.7594741  42.3136149
  50.6391356  83.1687389  42.1446164  51.1570188  84.3506177  41.6800472
  51.1524000  83.7598824  42.1941139  58.3554220  85.4994283  36.6468612
  59.0534385  85.6782411  37.1390075  58.6706553  84.9764623  36.0239001
  58.5049557  85.4488055  36.6270622  50.9855458  87.3047023  44.5579718
  50.8614154  87.8909469  45.1929537  51.6373742  86.8107219  44.8591993
  51.0629107  87.3185828  44.6965647  56.5281084  80.8686680  40.7289887
  56.1984414  81.3197823  40.0593586  55.8526086  80.7902843  41.2762893
  56.3791520  80.9237815  40.7113110  63.7357492  76.8572203  38.9739497
  63.4210933  77.5475681  39.4059920  63.2184433  76.8016985  38.2724998
  63.6121962  76.9507091  38.9336447  59.4246748  87.0005573  32.3653297
  59.6642751  87.2083556  31.5528640  59.7462589  86.1963081  32.4742241
  59.5083905  86.9119674  32.2613850  54.7337038  78.9298968  36.2112834
  55.4883006  79.2977285  35.9729885  54.5564572  79.3038523  36.9792014
  54.8191516  79.0397156  36.2897723  54.4236666  87.2226444  49.9708742
  54.5957169  87.1132339  50.8194024  54.9606023  87.8680850  49.7339935
  54.5281670  87.3018446  50.0613839  53.0894102  81.3369287  32.9090947
  52.9069676  81.5541168  32.0831940  53.9519716  81.4508300  32.9649562
  53.1898692  81.3859185  32.7945435  58.7693822  78.3395698  35.9439971
  59.4979982  78.1611653  35.4978128  58.8588715  79.1813778  36.1547149
  58.8900484  78.4379576  35.9093489  65.7079776  80.1436190  42.8404096
  66.3505685  80.2134295  43.4266011  65.9602797  79.4765413  42.3383638
  65.8401908  80.0562539  42.8531375  52.6356130  84.6143460  31.4213421
  51.9214307  84.3281639  31.8335853  53.1200098  84.9540086  32.0619808
  52.6015493  84.6225110  31.5769055  53.4796989  83.3536754  47.4528670
  52.7868786  82.8833733  47.6989402  54.0957316  83.1275058  48.0270377
  53.4681519  83.2503886  47.5737823  52.2037548  87.3202158  48.5955515
  52.9277520  87.3055188  49.0820410  52.3053684  88.0297513  48.0977484
  52.3255757  87.4226861  48.5934302  49.1062707  87.4810656  42.2372473
  49.6836209  87.3447106  42.8764719  48.4076768  87.0246440  42.4918058
  49.0883728  87.3932922  42.3694763  55.8630009  89.1344711  40.4510957
  55.6049253  88.3016446  40.4242256  55.9178492  89.3602324  39.6103457
  55.8329787  89.0442483  40.3231093  60.9431059  81.2373162  40.5515049
  60.2387386  80.7482347  40.7098968  60.9916033  81.2495636  39.6803494
  60.8461110  81.1662810  40.4454389  54.8364721  86.6882474  40.9375851
  54.2614312  86.8474642  41.5739812  54.4600397  86.0517883  40.4744302
  54.6967533  86.6180287  40.9630410  58.5038010  85.1605823  45.7968230
  58.1152442  84.7360041  45.1420421  57.8392708  85.4087973  46.3045256
  58.3484937  85.1344544  45.7756098  44.5821540  86.3322548  38.9520292
  44.6681792  85.9554417  39.7333822  45.2097337  85.9582994  38.4740250
  44.6878091  86.2208031  38.9965769  62.3264371  78.8580452  43.3092214
  62.7074883  78.1758623  43.6960088  61.5227655  78.5690054  43.1267878
  62.2640833  78.7147500  43.3396270  56.1187671  88.0828235  33.4592238
  56.5032824  87.8635942  34.2108783  55.8699291  88.9091180  33.5893314
  56.1389744  88.1726381  33.5893315  56.2856211  81.3634650  53.1754822
  55.9709653  82.1334213  52.9124385  55.9646144  80.8004906  52.5907049
  56.1915131  81.3944919  53.0496172  53.8388108  79.7525171  38.7901019
  52.9710534  79.8247771  38.8558628  54.1263313  80.5547250  38.9788994
  53.7527857  79.8819319  38.8275785  62.9620997  79.9003031  47.1212340
  63.7074589  79.7112841  46.7075766  62.5458302  80.4261269  46.5626197
  63.0105971  79.9505176  46.9776914  55.9172717  83.9631901  51.9140037
  55.1072493  84.2689681  51.8029879  56.3947404  84.6837483  52.0292621
  55.8676196  84.1146502  51.9147108  51.7655460  83.2283431  36.2317895
  51.4780256  82.8584701  35.4949842  52.4525929  83.6978286  35.9701600
  51.8244358  83.2430400  36.0832971  54.6009132  87.0936379  37.6785300
  55.3231784  87.2577537  37.2189106  54.1217125  87.8146044  37.5724639
  54.6372863  87.2234609  37.5950914  62.5602640  83.4300178  43.0581985
  61.7213740  83.4561457  42.8220248  62.6307007  84.0770913  43.6387331
  62.4471033  83.5296304  43.1091101  61.0071918  80.3285555  37.7909600
  61.7098271  80.1293303  37.3129559  60.7416107  79.5561497  38.0978444
  61.0718550  80.1848521  37.7655042  49.3383655  84.0064643  37.0803176
  49.4399792  84.8090805  37.4084151  50.1339542  83.8051979  36.7826257
  49.4711561  84.0950542  37.0838531  55.7700474  81.5920840  46.8440481
  55.5783671  81.6075974  47.6939905  56.6199070  81.7884514  46.8207136
  55.8676196  81.6235191  46.9663776  50.1547387  84.1211821  44.8224298
  50.0132879  83.2695762  44.9468806  50.4387951  84.1640482  43.9986504
  50.1755233  84.0011571  44.7191922  60.3085980  85.9578912  38.9668786
  60.0620694  85.8774663  39.8005575  60.6371103  85.1732379  38.7731313
  60.3207223  85.8305177  39.0616309  56.2683007  88.6935630  48.3791769
  56.4126383  89.2736838  47.7434879  56.6158655  89.0711927  49.0841624
  56.3410468  88.8356334  48.3890764  58.4402924  87.8925799  46.1616900
  57.6926238  88.0856813  45.7565179  58.5944449  87.0671018  45.9241022
  58.3525352  87.7990910  46.0662306  58.6804701  81.7876349  47.0512304
  59.1377315  82.5200324  47.1785096  58.7561030  81.3642815  47.8099560
  58.7595671  81.8333587  47.1813381  50.9237692  82.0342169  48.1401748
  50.3879882  81.4222527  48.4562515  50.9855457  82.6090305  48.7935415
  50.8533325  82.0289097  48.2837175  63.1532027  74.9666225  40.9206147
  63.2715595  75.4242688  40.1873450  62.9794203  74.1611486  40.6342365
  63.1451198  74.9159997  40.7707081  56.5587079  83.7778453  43.8954128
  55.7683154  83.5969913  44.2171464  56.9547702  83.0005406  43.8784423
  56.5003955  83.6365914  43.9406677  59.0724909  86.2538712  48.3777627
  59.0084051  87.1148669  48.2497764  59.2122097  85.9370706  47.5773178
  59.0840379  86.3338879  48.2405840  60.7294862  83.7117091  46.8737466
  60.9436832  83.0728005  46.3200820  60.1128761  84.1562915  46.4445328
  60.6700192  83.6827235  46.7287897  49.6160710  86.6257854  38.2682570
  49.9959675  87.0442399  37.6042837  49.0416075  87.2071309  38.5751413
  49.5872035  86.7735712  38.2159311  60.1209591  76.8217027  41.8624809
  59.2503149  76.7955748  41.8158119  60.3749932  76.6494219  41.0450655
  60.0303151  76.7927171  41.7344946  57.1458731  78.8323255  43.3198279
  56.6297220  78.1403447  43.4449858  56.5852660  79.4994032  43.2660878
  56.9865245  78.8286513  43.3304345  59.2150965  79.3716215  45.1491132
  58.8282718  79.3965247  45.9304662  58.7283902  78.8057894  44.6965649
  59.0863474  79.2911966  45.1979036  58.8808107  76.2583201  47.4401392
  59.5101225  76.7943501  47.1622462  59.0493969  76.1660560  48.2914958
  58.9985901  76.3244563  47.5249920  58.6822021  81.0454396  49.7127804
  59.5095451  80.7739544  49.7686418  58.7029868  81.8415237  50.0691622
  58.8074872  81.1234150  49.7742986  53.2591511  88.1918258  42.8998064
  52.4179518  88.0922133  43.1076958  53.4681519  88.9613739  43.2512385
  53.1656204  88.2910302  42.9825379  50.7367078  85.8137795  40.7282815
  50.3423776  85.8880807  39.9532924  50.1807195  86.1995742  41.2791177
  50.5969891  85.8819570  40.6950475  62.3732025  78.7919089  40.4086694
  62.5781618  78.7241397  41.2543691  62.0458449  79.5977911  40.3407871
  62.3547273  78.9005030  40.5246349  57.0708176  86.1199658  42.1495662
  56.7671314  85.5655646  42.7506069  56.3687597  86.2991868  41.6623696
  56.9224386  86.0644440  42.1665367  56.1274273  83.4300177  36.7140364
  56.4034008  82.7119090  36.3017931  56.7272943  84.0285097  36.5061470
  56.2567538  83.4120548  36.6221125  65.6265713  79.3450854  39.8889459
  65.0140026  79.8321256  40.2743191  65.7229888  78.6694344  40.4327110
  65.5503610  79.3169162  40.0268317  59.6284794  81.1013695  34.9886959
  60.0828540  81.2724255  35.7134803  60.1024840  80.4881805  34.5884734
  59.7653114  81.0364580  35.0360720  53.5460942  81.7464018  44.9857715
  54.0062424  81.8202948  45.7232838  53.5917049  82.5445272  44.6357536
  53.6211497  81.8758165  45.0430471  55.1944292  82.4130713  49.5529742
  54.8029857  81.7664060  49.9885520  55.3630154  83.0042149  50.1723997
  55.1615202  82.4044981  49.7092448  56.9697814  87.8056229  36.0931966
  57.7139859  88.1930505  36.3314916  57.1158510  86.9613654  36.2572454
  57.1008399  87.7386702  36.1525936  58.8877389  79.6006488  41.1263827
  58.0413434  79.7729296  41.0005177  58.8848522  78.7955832  41.4629656
  58.7624539  79.5067517  41.1574954  59.9575690  83.3781702  41.9925885
  59.4835644  82.8523464  42.5031196  60.3293825  82.8311175  41.4240747
  59.9425579  83.2197699  41.9841032  50.3348720  85.3753209  47.3609431
  51.1974333  85.2748918  47.2746761  50.0040503  84.7947918  46.7995003
  50.4133916  85.2744836  47.2654837  61.8859189  84.2718257  35.0551639
  61.3582208  84.3547001  34.3657348  62.3454897  85.0136128  35.0516284
  61.8761040  84.3938919  34.9526334  53.6950506  84.1995658  44.0219849
  53.0703576  84.2114050  43.4145802  53.3596101  84.6755833  44.6711089
  53.5535998  84.2714175  44.0276418  53.8792254  82.5420777  30.0792534
  53.5305059  83.1940502  30.5424083  53.3988700  82.5277890  29.3516405
  53.7562498  82.6363830  30.0403625  52.9641251  85.8088806  46.2394718
  53.1234738  85.0532130  46.6446439  52.7834145  86.3579745  46.8935455
  52.9606610  85.7782620  46.3957424  60.9061554  77.9750041  46.7945507
  60.4102115  78.1713716  46.1037074  61.6630616  78.3742710  46.6234309
  60.9448379  78.0627775  46.6665644  58.1764434  81.6492387  43.3848818
  58.2006921  81.1152500  42.6961598  58.4275907  81.1409696  44.0474408
  58.2174352  81.4953291  43.3813462  54.4565756  80.3763206  42.7654562
  54.4964128  80.8772412  43.4789269  53.6315421  80.4673599  42.4960485
  54.3405282  80.4645022  42.8305100  55.8780119  86.8923715  45.0628461
  55.0472049  87.0597533  44.8563709  55.8231637  86.5159666  45.8477346
  55.7469534  86.8613447  45.1476989  53.6863903  80.3832608  50.6984872
  54.3116606  79.8394741  50.9714304  53.2314383  79.9027526  50.1292662
  53.7112163  80.2322090  50.6546465  54.2516163  85.1679307  35.5918579
  54.3919124  85.6651771  36.2947220  54.7498696  84.4665601  35.7332792
  54.3457244  85.1381286  35.7170158  54.2816386  86.0346418  32.9211155
  54.9161465  86.6306843  32.8560617  54.3641996  85.7349876  33.7357026
  54.3872937  86.0787326  33.0314242  55.8595368  81.9660393  32.8956597
  56.1811209  81.4863476  32.2415860  56.1222312  82.7760039  32.7047409
  55.9461394  82.0150291  32.7712089  61.2554523  81.3532587  45.2580077
  61.6809595  80.9005114  44.6463603  60.6411517  80.7992658  45.5344864
  61.2283169  81.2046564  45.2085102  59.6948746  77.8247687  38.6670654
  59.0517064  77.6745334  39.2355792  59.3548153  77.5790032  37.9019758
  59.5493824  77.7659810  38.6373669  64.4476220  82.2362998  40.9991035
  64.8003830  81.8092721  41.6736834  63.5891022  82.1513841  41.1292112
  64.3725665  82.1607738  41.1186046  53.1459905  84.8670517  39.0573882
  52.4271894  85.2834650  39.3246745  53.5172267  85.4324756  38.5065520
  53.0951837  85.0119799  39.0156689  58.9206480  83.9068517  34.3947261
  58.3271319  84.2285514  33.8431828  58.9581757  83.0609613  34.1868367
  58.8380869  83.8292845  34.2830033  65.8800280  77.3581409  41.9275348
  65.3731145  76.6510549  41.8596525  66.6767714  77.0274598  42.0576424
  65.9227519  77.2054561  41.9374343  61.7964296  83.8648022  37.8249012
  61.5677989  83.8880723  36.9827370  62.0562372  83.0405489  37.9444022
  61.8010484  83.7464102  37.7174209  56.0783525  85.7182495  47.4274112
  55.5662428  85.1103678  47.7859143  55.9063021  86.4339087  47.8948088
  55.9773162  85.7345794  47.5490335  50.9249239  84.1620070  50.0776474
  50.7551830  84.8221445  49.5324680  50.4815189  84.3726631  50.7988963
  50.8348573  84.2906052  50.1038103  54.8509059  82.4024568  39.1203207
  55.3266425  82.7641648  38.4853388  54.3497658  83.0581036  39.4003350
  54.8474418  82.5518757  39.0679948  59.9552595  83.6406739  49.8676367
  60.5124025  83.4120549  49.2354833  59.6313660  84.4012405  49.5911580
  59.9899005  83.7190576  49.7332864  47.8251304  87.0666936  45.3364963
  47.2778023  86.3967581  45.4545832  48.6143682  86.6996784  45.4008431
  47.8603487  86.9131922  45.3633664  57.6735712  86.7274393  50.8328374
  58.4247039  87.0426070  51.1467929  57.8658289  86.5253564  50.0062296
  57.8127126  86.7441775  50.7571770  56.8935712  84.5465768  32.4876591
  57.2734677  84.5645397  31.7027706  56.1528308  84.9919757  32.3667439
  56.8404550  84.6147542  32.3540159  64.5221002  82.8547959  38.0752170
  64.5215229  82.6996616  38.9336446  64.3177182  83.7010946  38.0193555
  64.4920780  82.9568580  38.1940109  57.8161768  78.7710883  47.7024758
  57.9489673  77.9741877  48.0305733  58.2006920  79.2977286  48.2823033
  57.8918096  78.7310800  47.8368261  60.8894123  75.6941209  44.3005851
  60.0840086  75.5838939  44.6173689  60.7600858  75.7953665  43.4435717
  60.7514256  75.6924879  44.2213891  64.3460083  81.8586701  44.8945548
  63.7623072  82.3595908  44.4823115  64.6664377  81.3516257  44.2609871
  64.3073259  81.8578536  44.7404055  56.8854882  80.7727296  35.1704223
  57.7070577  80.9425609  34.9285918  56.4224533  80.9274557  34.4470520
  56.9386045  80.8209029  35.0275867  55.4750214  78.7670058  45.9502652
  56.0194627  78.4261185  46.5406993  55.5287150  79.6255520  46.0923936
  55.5639334  78.8425318  46.0584525  22.4026102   1.7968863  23.9386620
  22.3720106   2.6513499  24.1104889  23.0007450   1.4964155  24.4972764
  22.4863260   1.8785359  24.0461422   9.9866926  10.4207232  24.4576782
   9.2349826  10.0422770  24.2292827  10.4352938  10.4525665  23.7095592
   9.9416593  10.3692839  24.3134284  18.9119503   7.1531039  38.3000007
  19.6186270   6.6583070  38.4286941  19.1007439   7.5940121  37.5702665
  19.0447409   7.1449390  38.2109052  14.9796177  12.7946870  25.8273441
  15.3635557  13.3633768  25.2878216  14.9155319  12.0696380  25.3479257
  15.0269605  12.7722333  25.6767303  18.4477608   2.9436558  31.3371202
  18.9933568   3.6221644  31.3965172  18.3894484   2.8024018  30.4772784
  18.5193522   3.0228559  31.2183263  11.5651682  10.4325624  26.7239554
  11.6662045   9.6225978  27.0336682  10.9693428  10.3382570  26.0939233
  11.4924221  10.2990652  26.6765793  20.2242676   4.3721165  22.2104930
  20.1082202   5.1228851  22.6397068  21.0198563   4.1145118  22.4601017
  20.3247266   4.4456012  22.3109022  11.4052422  15.3503213  28.1254411
  12.0489878  15.7916377  28.5150569  11.7308678  14.5456639  28.0384669
  11.5484251  15.2968408  28.1699888  12.1073002   8.3615188  23.4974272
  12.4288843   8.9020395  22.8935580  12.7545098   7.7911959  23.6296562
  12.2499057   8.3574363  23.4281308  11.8134288   5.3445640  30.7707276
  12.4583291   4.8518083  30.4518224  12.0536065   5.4870426  31.5973354
  11.9444873   5.2923082  30.8456809  14.3520380   8.1900545  30.4214168
  14.6343622   7.3951951  30.2000924  15.0806540   8.6681133  30.4419229
  14.5009943   8.1435142  30.3917184  24.3338468   7.2959908  27.3949999
  23.5036171   7.5070551  27.5583416  24.2847720   6.4696962  27.1192283
  24.2045203   7.2049514  27.3787365   6.3234051  11.3331581  27.6248094
   5.8401630  12.0582071  27.6007678   7.1357370  11.6307711  27.7358252
   6.3724799  11.4833935  27.6375374  12.3948205  10.1263762  30.2297909
  11.8775147   9.7671177  29.6259217  13.0922597   9.6025936  30.2403975
  12.4213787   9.9961450  30.1428167  16.0511797  10.5758576  36.1914082
  16.1395143  10.3884716  37.0392292  16.4801510   9.9296005  35.7918929
  16.1273900  10.4521584  36.2585833  13.6182257   9.8589736  35.1731744
  13.0553092   9.4462346  35.6971405  14.3803281   9.7842641  35.5924887
  13.6476706   9.7867136  35.3124744   9.1778249  11.8487757  27.7768374
   9.8798828  11.3339746  27.8341131   9.0975732  12.1761908  28.5815249
   9.2702009  11.8201983  27.9041166  23.8292426  -0.0569692  31.1900421
  22.9920847   0.0132495  31.4248015  23.7980657  -0.0545197  30.3174723
  23.7010709  -0.0459465  31.0959969   8.5029024   8.0394109  27.2853982
   9.3417924   8.2717042  27.3327744   8.5340793   7.1698420  27.2161018
   8.6310742   7.9451055  27.2818627   9.1281727   8.4594984  31.5867288
   9.6679952   8.3166115  32.2570660   8.4451673   8.8591735  31.9551314
   9.1073881   8.4974655  31.7401709  18.5522612   4.1385985  26.7812312
  19.3080127   4.5717499  26.8201221  18.6584936   3.4890755  27.3546948
  18.6792783   4.1063469  26.8710338  21.5902783   7.9659262  27.5314715
  21.1538015   7.9696004  28.2873686  21.2565699   8.6464761  27.0994293
  21.4765403   8.0671718  27.5795548  16.1631857  10.0067595  38.8557865
  16.9472273  10.1198443  39.2213608  15.9628451   9.1808732  39.0516551
  16.2497882   9.9014314  38.9392251  16.3202250  11.9177697  32.5024321
  15.5217496  11.6777197  32.7598190  16.7688262  11.9692090  33.2491369
  16.2676861  11.8900088  32.6509245  24.7247129   4.6840182  26.4234352
  25.3863563   4.1230850  26.3230261  24.0838541   4.1892213  26.7487043
  24.7275997   4.5276591  26.4566692  21.0111960   5.7005564  26.1646341
  21.2467549   5.8450763  25.3373192  21.1601524   6.4647972  26.5577855
  21.0677763   5.8344619  26.1009945  22.8402417   4.5407230  24.0015945
  23.1710634   5.0734870  23.3956040  23.4135505   4.5946118  24.6577896
  22.9736096   4.6276799  24.0093727  15.3802987   5.6638142  40.3944509
  14.5875968   5.9781654  40.5797129  15.4951914   5.8789610  39.5565294
  15.2798397   5.7421979  40.2982844  18.0534306   2.3872133  24.6839525
  18.1481160   3.1261427  25.1379150  17.4293149   1.9589608  25.1174090
  17.9743336   2.4333454  24.8147673  16.3086780   5.5658346  35.3329806
  16.8825641   4.9285590  35.4878370  16.2301583   5.5662428  34.4639464
  16.3820015   5.4723457  35.2276217  23.9481768  -0.2182273  25.5056107
  23.6918333  -1.0302331  25.3153989  24.7911082  -0.2104706  25.2786294
  24.0347794  -0.3370275  25.4440924  21.6306928   6.9367323  35.3414659
  21.3945565   6.1055388  35.2226720  22.2750156   6.8852930  35.9269503
  21.6901598   6.8065011  35.4100553  11.2805346   7.7262844  26.0557396
  11.9179293   7.4874592  26.6009189  11.7060417   7.9300003  25.3210556
  11.4381512   7.7213855  26.0274553   5.9717988   9.9651181  29.9391699
   6.0122133  10.2366032  29.1111479   6.5312512  10.4893089  30.3549487
   6.0601334  10.0826936  29.8783587  22.6543348   6.7211772  31.4042954
  22.3489165   7.4539829  31.7656269  21.9349564   6.3149701  31.1235740
  22.5030690   6.7693505  31.4156091  13.6626818   8.2035267  27.7351182
  13.7365826   8.0410439  28.5893032  14.4796324   8.3925457  27.4911663
  13.7943176   8.2072009  27.8249207  28.3545140   3.3604773  30.7311298
  28.2869641   3.3800732  29.8613884  28.3400803   4.2035100  30.9566968
  28.3423897   3.4878507  30.6363775   7.4232574   8.5493130  24.7645625
   6.5970692   8.7954867  24.6379904   7.4844566   8.4705211  25.6307683
   7.3106741   8.5738079  24.8734570  12.2031403  11.1670010  22.4664655
  12.4929702  10.7758992  21.7423882  12.9334884  11.3486715  22.9069931
  12.3538288  11.1363824  22.4247462  26.1403758   2.1349159  29.0057892
  26.6911679   1.5017228  29.2454984  26.1247873   2.6664552  29.6973397
  26.2188954   2.1198107  29.1436750  12.7926149   5.9687756  33.5517786
  12.2937842   6.6803524  33.6302674  13.6026373   6.2888423  33.5135948
  12.8382255   6.1214605  33.5574354  10.1437319  13.1437393  25.5324805
   9.9237614  12.8534747  26.3251472   9.9231841  12.4852348  25.0042717
  10.0784913  13.0037101  25.5713714  19.8432164   0.3745492  28.1162488
  19.4996930  -0.3464172  28.4669738  19.9425206   0.1659344  27.2740847
  19.8074207   0.2369696  28.0434168  12.3105275  14.5166783  24.3155497
  12.9629333  13.9843225  24.5446523  11.6130883  14.1635435  24.7023371
  12.3035993  14.3856306  24.4067665  20.3045193   6.8371197  23.6586477
  20.8703226   7.4964406  23.5745020  19.6573096   7.1820895  24.1302879
  20.2923949   6.9853138  23.7159233  10.5784766   8.0414522  29.0962987
  10.0565520   8.1814813  29.7814852  10.9658786   7.2825186  29.2865104
  10.5588467   7.9500045  29.2264064  16.7751771   9.7809981  23.0823556
  16.5338447   9.0477841  22.6750621  16.9553104  10.3296838  22.4289889
  16.7659395   9.7532372  22.9253779  22.2380653   3.5005064  27.2783273
  22.1514628   3.6560490  28.1318052  21.7831133   4.1443140  26.9042678
  22.1583910   3.6180819  27.3490380  20.0054518   7.5299170  29.6895614
  19.8668877   8.2280216  30.1944356  19.2254516   7.3747827  29.3331796
  19.8697745   7.6099337  29.7121888  18.3432603   3.8295546  35.9417996
  18.3380642   2.9575362  35.9460422  19.0493597   4.0283715  35.4687451
  18.4477607   3.7299420  35.8725031  11.1431251  11.7475302  32.1792843
  11.2920815  11.1878217  31.5266247  11.9231254  11.8267303  32.5625361
  11.2805345  11.6760867  32.1389792  21.5007891   6.8877424  20.4512113
  21.1214700   6.1014562  20.4441402  20.8374136   7.4364281  20.3083757
  21.3466366   6.8522248  20.4292910  13.6684552  11.9189944  33.4577333
  13.5928223  11.2498755  34.0128122  13.5974411  12.6207733  33.9718000
  13.6465159  11.9234852  33.6154181  14.3254799  10.4390943  24.2900939
  15.0904690  10.1700587  23.9683604  14.2232889   9.9540954  25.0071002
  14.4236294  10.3280508  24.3480767  17.7451255   6.2757783  28.5553621
  17.0696257   6.0443015  29.0567008  17.7543631   5.6678966  27.9295726
  17.6469760   6.1516708  28.5369773  19.7467990   9.1322915  20.7863799
  19.8287827   9.9389901  20.4625250  20.2317732   9.1518874  21.5104572
  19.8305148   9.2543578  20.8450698  13.0576186  15.3258264  31.9155334
  13.5472117  14.6269053  31.7330999  12.4860419  15.0282134  32.5031391
  13.0460716  15.1784488  31.9756375  19.2543190   7.8920334  40.8682125
  20.0678055   7.6205482  41.0287257  19.0938156   7.5927874  40.0642321
  19.3513138   7.8075260  40.7727531  17.9420020  11.4972739  25.2531734
  17.5499812  11.1939454  24.5354600  18.0973092  12.3341829  25.0636688
  17.9073610  11.5756576  25.1188231  18.1059695   8.0622728  25.1937765
  17.7474349   8.2337371  25.9701797  17.6198405   8.5235934  24.6365763
  17.9818391   8.1561699  25.2263034  19.2664434   8.9526624  36.1404965
  19.9044154   8.4586819  35.8067421  18.6238526   8.8804024  35.5557192
  19.2658660   8.8685632  36.0047320  20.9921434   0.8015770  30.7070881
  20.5649042   0.7142118  29.9518981  20.3547487   0.9093545  31.2925725
  20.8351041   0.8048430  30.6816323  19.3218691   9.6446432  32.7810322
  20.1111069   9.2935497  32.9012404  19.4962288  10.4582821  32.5186956
  19.4638972   9.7132289  32.7598190  10.9347017   8.1986278  33.7907806
  10.8267372   8.2088340  34.6569864  11.1442798   9.0241058  33.6012760
  10.9497128   8.3227353  33.8911898  25.0711230   5.2804690  32.2507022
  25.1294354   5.7291339  32.9966999  24.4377698   5.6903503  31.8137102
  24.9862525   5.4078424  32.2959570  18.7110325  10.9008232  28.6861768
  18.5130014  11.3899046  27.9917980  18.0898036  11.1049473  29.2645902
  18.5897890  11.0024770  28.6684992  22.0232910   3.3020978  30.3372712
  21.7831133   2.4627393  30.3415139  22.5024917   3.3821144  31.0613486
  22.0585094   3.1902377  30.4447515  24.0238097   0.0822435  28.2901972
  23.7847867   0.0418269  27.4522756  24.1871998   0.9293587  28.4167693
  24.0128400   0.2014520  28.1855454  20.6284127   4.4672384  34.2207017
  21.3518326   4.0144910  34.0418037  20.3634089   4.7477050  33.4379345
  20.6965400   4.4423353  34.0785732  16.4102916   4.5656262  32.3702032
  15.7959910   4.0214313  32.6650667  16.9270201   4.0520499  31.8907848
  16.3958579   4.4092671  32.3426260  15.6499214   5.6360532  30.1046330
  15.2226822   5.0110251  29.6711766  15.6424158   5.3535454  30.9305338
  15.5858355   5.5013313  30.1626158  12.4415858   4.8060845  37.8014903
  11.5911489   4.9432559  37.9372548  12.6043986   4.0724623  38.2462605
  12.3399722   4.7174946  37.8870502  23.0619441   3.4298795  32.7237566
  23.6537281   4.0696046  32.7555764  23.4978435   2.7321832  33.0129633
  23.2137872   3.4217145  32.7718399  14.8912831   7.8516167  33.3495460
  14.3837922   8.4052014  33.7936091  14.5939477   7.9124457  32.5314235
  14.7717716   7.9422478  33.2943917  17.5020611  11.7679425  21.2799404
  16.7849921  11.5940287  20.8146641  18.1527349  11.5331997  20.7474890
  17.4922462  11.7075217  21.1328622  20.0868582   0.6444013  25.0240709
  19.4159772   1.1873716  24.8953774  20.7808333   1.1138869  24.7822404
  20.0897450   0.7942285  24.9696237  14.1355316  12.7840725  30.2552467
  13.9120971  12.0259555  30.6236494  13.6465159  12.8138747  29.5332907
  14.0298765  12.6762950  30.2029208  18.2479976   0.3635266  31.8815924
  18.2277903   0.1818561  32.7350703  18.2959176   1.2347284  31.8575508
  18.2514617   0.4651804  32.0039219  16.1926305   6.9522458  37.8064401
  16.1522160   6.3072135  37.2209557  17.0049624   6.8959075  38.1189813
  16.3069459   6.8481425  37.7661350  12.7833773  13.0041184  27.7089552
  12.3694172  12.3415314  27.3193394  13.4681147  13.1519042  27.1885246
  12.8232145  12.9281842  27.5746049  16.1499067  12.1631269  28.4613168
  15.7515350  12.2733539  27.6933989  15.5350287  12.3713335  29.0439728
  15.9997956  12.2104837  28.4344468  23.8840910   6.7383236  21.8456259
  24.2674516   7.4874592  22.0754356  23.0885023   6.9849055  21.5868248
  23.8234692   6.8852929  21.8413833  18.0482344   2.3982360  28.6628424
  18.5436009   1.6805355  28.6232444  17.2382120   2.0953158  28.5482911
  18.0026237   2.2480007  28.6402149  20.1134163   5.1486048  31.3505552
  20.5389234   4.6260470  30.7975977  19.7491083   5.7466885  30.8294175
  20.1220765   5.1596275  31.1914562   9.7488243  13.4450265  30.1102898
  10.0634802  14.2586654  30.1180680  10.1581656  13.0600484  30.7785057
   9.8556341  13.5078968  30.2106989  16.7012762   8.8620312  27.6806710
  17.1723940   9.5760575  27.8496695  17.0372941   8.2619062  28.2166579
  16.8207877   8.8791776  27.7839086  18.7889747  10.4721625  39.8598782
  18.8986712   9.6830186  40.2155529  19.1180643  10.3827562  39.0573120
  18.8542153  10.3427478  39.7941173  17.3386709   8.6538246  34.4434402
  16.7907655   8.0296130  34.1754468  17.7999737   8.8432518  33.7278482
  17.3253918   8.5897296  34.2984834  16.9045035   9.6589319  30.9743744
  17.7243409   9.5152285  31.2360039  16.6239113  10.2835518  31.5160182
  16.9841778   9.7299671  31.0931683  26.5758370  16.4029822  28.6939550
  25.7196266  16.5638320  28.7448667  26.6226024  15.5321886  28.7144611
  26.4557482  16.2980623  28.7045616  20.9599510  25.9392539  24.4576782
  20.2082409  25.5608078  24.2292827  21.4085522  25.9710973  23.7095592
  20.9149177  25.8878147  24.3134284  29.8852087  22.6716347  38.3000007
  30.5918854  22.1768378  38.4286941  30.0740022  23.1125429  37.5702665
  30.0179992  22.6634698  38.2109052  26.4124470  26.3617909  19.8862329
  26.0775838  27.0394831  19.4506551  26.9251340  25.9723220  19.2979201
  26.4390051  26.4042487  19.7349121  25.9528761  28.3132178  25.8273441
  26.3368140  28.8819076  25.2878216  25.8887902  27.5881688  25.3479257
  26.0002188  28.2907641  25.6767303  22.5384266  25.9510932  26.7239554
  22.6394629  25.1411286  27.0336682  21.9426011  25.8567878  26.0939233
  22.4656805  25.8175960  26.6765793  31.1975260  19.8906473  22.2104930
  31.0814786  20.6414159  22.6397068  31.9931146  19.6330426  22.4601017
  31.2979849  19.9641320  22.3109022  22.3785006  30.8688521  28.1254411
  23.0222461  31.3101685  28.5150569  22.7041261  30.0641947  28.0384669
  22.5216834  30.8153716  28.1699888  15.7349310  21.9731218  26.3491888
  15.4999495  21.1398871  26.2424157  15.8734951  22.2535884  25.5353089
  15.7204973  21.8914722  26.2134243  18.0339398  14.1416949  29.2476196
  17.4144429  13.5509596  29.0786211  17.9323261  14.7328384  28.6140519
  17.9277073  14.1421031  29.1281185  23.0805585  23.8800496  23.4974272
  23.4021426  24.4205703  22.8935580  23.7277682  23.3097267  23.6296562
  23.2231641  23.8759671  23.4281308  25.1307293  15.8816491  23.5808659
  25.8287458  16.0604618  24.0730122  25.4459626  15.3586830  22.9579048
  25.2802631  15.8310263  23.5610669  17.7608531  17.6869231  31.4919765
  17.6367228  18.2731676  32.1269584  18.4126815  17.1929426  31.7932040
  17.8382180  17.7008035  31.6305694  25.3195229  22.2686936  23.5688450
  25.7588864  21.6604036  24.0143223  25.1699892  21.8894309  22.7973915
  25.3616694  22.1225407  23.5207618  22.7866872  20.8630947  30.7707276
  23.4315874  20.3703391  30.4518224  23.0268649  21.0055734  31.5973354
  22.9177457  20.8108390  30.8456809  25.3252963  23.7085853  30.4214168
  25.6076206  22.9137259  30.2000924  26.0539124  24.1866441  30.4419229
  25.4742527  23.6620450  30.3917184  23.3034157  11.2508887  27.6629934
  22.9737487  11.7020031  26.9933632  22.6279159  11.1725051  28.2102940
  23.1544593  11.3060022  27.6453157  28.9204565  20.6214117  20.5219220
  28.8355860  21.4775084  20.6668789  29.4088949  20.3458441  21.1901379
  28.9793463  20.7071438  20.6421301  30.5110565   7.2394410  25.9079544
  30.1964006   7.9297889  26.3399967  29.9937506   7.1839192  25.2065045
  30.3875035   7.3329299  25.8676493  29.8522999  17.2398911  22.0216955
  29.3234470  17.4558545  22.6814261  30.3748019  17.9335050  21.9417924
  29.8511452  17.3742048  22.1072554  21.7422606  21.1362128  20.8224423
  21.1579822  21.6412159  21.2290287  21.3392702  20.9104515  20.0821015
  21.5961910  21.1770376  20.7729448  17.2966635  26.8516889  27.6248094
  16.8134213  27.5767379  27.6007678  18.1089953  27.1493019  27.7358252
  17.3457383  27.0019243  27.6375374  23.3680789  25.6449070  30.2297909
  22.8507731  25.2856485  29.6259217  24.0655180  25.1211244  30.2403975
  23.3946370  25.5146758  30.1428167  27.0244381  26.0943884  36.1914082
  27.1127727  25.9070024  37.0392292  27.4534094  25.4481313  35.7918929
  27.1006483  25.9706891  36.2585833  24.5914841  25.3775044  35.1731744
  24.0285676  24.9647654  35.6971405  25.3535864  25.3027949  35.5924887
  24.6209289  25.3052444  35.3124744  26.1999821  17.3827780  19.2993343
  26.4395824  17.5905764  18.4868686  26.5215662  16.5785289  19.4082288
  26.2836979  17.2941881  19.1953896  21.5090111   9.3121176  23.1452881
  22.2636079   9.6799493  22.9069932  21.3317646   9.6860730  23.9132061
  21.5944589   9.4219364  23.2237770  20.1510832  27.3673065  27.7768374
  20.8531412  26.8525054  27.8341131  20.0708315  27.6947216  28.5815249
  20.2434593  27.3387291  27.9041166  34.8025010  15.4615616  31.1900421
  33.9653431  15.5317803  31.4248015  34.7713241  15.4640111  30.3174723
  34.6743292  15.4725843  31.0959969  21.1989739  17.6048652  36.9048789
  21.3710243  17.4954546  37.7534071  21.7359096  18.2503057  36.6679982
  21.3034743  17.6840654  36.9953886  19.8647176  11.7191495  19.8430994
  19.6822749  11.9363375  19.0171987  20.7272789  11.8330507  19.8989609
  19.9651765  11.7681393  19.7285481  19.4761608  23.5579417  27.2853982
  20.3150507  23.7902350  27.3327744  19.5073377  22.6883728  27.2161018
  19.6043325  23.4636363  27.2818627  20.1014311  23.9780292  31.5867288
  20.6412536  23.8351423  32.2570660  19.4184257  24.3777043  31.9551314
  20.0806465  24.0159963  31.7401709  25.5446895   8.7217905  22.8780018
  26.2733055   8.5433860  22.4318174  25.6341788   9.5635985  23.0887196
  25.6653557   8.8201784  22.8433536  29.5255196  19.6571293  26.7812312
  30.2812711  20.0902807  26.8201221  29.6317520  19.0076062  27.3546948
  29.6525366  19.6248777  26.8710338  27.1364440  25.5252903  38.8557865
  27.9204857  25.6383751  39.2213608  26.9361035  24.6994040  39.0516551
  27.2230466  25.4199622  38.9392251  15.5051456  20.1980583  31.7401709
  15.2389871  19.3819700  31.8992700  15.5190020  20.2433738  30.8697225
  15.4676178  20.0837488  31.6355191  32.4832850  10.5258398  29.7744143
  33.1258758  10.5956502  30.3606058  32.7355870   9.8587621  29.2723685
  32.6154982  10.4384746  29.7871422  19.4109203  14.9965667  18.3553467
  18.6967380  14.7103847  18.7675900  19.8953171  15.3362293  18.9959855
  19.3768566  15.0047317  18.5109102  20.2550062  13.7358961  34.3868717
  19.5621859  13.2655941  34.6329449  20.8710389  13.5097266  34.9610424
  20.2434592  13.6326093  34.5077870  27.2934834  27.4363005  32.5024321
  26.4950079  27.1962505  32.7598190  27.7420845  27.4877398  33.2491369
  27.2409445  27.4085396  32.6509245  26.5856521  23.4995621  18.7315276
  27.0007669  23.1680645  18.0399771  25.7548450  23.2664524  18.6035412
  26.5244529  23.4166877  18.6106123  15.9144869  20.9839362  29.0213454
  15.7320443  20.9586248  28.1685746  16.6494538  21.4538300  29.0602362
  15.9958933  21.0500725  28.9011372  18.9790621  17.7024365  35.5295562
  19.7030593  17.6877396  36.0160457  19.0806758  18.4119720  35.0317530
  19.1008830  17.8049068  35.5274349  26.3535571  21.1823450  40.3944509
  25.5608551  21.4966962  40.5797129  26.4684498  21.3974918  39.5565294
  26.2530981  21.2607286  40.2982844  29.0266889  17.9057441  24.6839525
  29.1213744  18.6446735  25.1379150  28.4025733  17.4774916  25.1174090
  28.9475920  17.9518761  24.8147673  27.2819363  21.0843654  35.3329806
  27.8558225  20.4470898  35.4878370  27.2034167  21.0847736  34.4639464
  27.3552598  20.9908765  35.2276217  15.8815780  17.8632863  29.1712520
  16.4589282  17.7269314  29.8104765  15.1829841  17.4068647  29.4258104
  15.8636801  17.7755129  29.3034810  29.2789911  19.7506181  17.9176477
  29.1970073  19.8208368  18.7831464  29.9169631  20.3135925  17.7260218
  29.3609748  19.8445152  18.0166427  22.6383082  19.5166919  27.3851003
  22.3802326  18.6838653  27.3582303  22.6931565  19.7424532  26.5443504
  22.6082860  19.4264690  27.2571140  27.7184132  11.6195369  27.4855096
  27.0140459  11.1304555  27.6439015  27.7669106  11.6317844  26.6143540
  27.6214184  11.5485017  27.3794436  21.6117794  17.0704681  27.8715898
  21.0367385  17.2296849  28.5079859  21.2353470  16.4340090  27.4084349
  21.4720606  17.0002494  27.8970456  25.2791083  15.5428030  32.7308277
  24.8905515  15.1182248  32.0760468  24.6145781  15.7910180  33.2385303
  25.1238010  15.5166751  32.7096144  34.9214352  15.3003035  25.5056107
  34.6650917  14.4882977  25.3153989  35.7643666  15.3080602  25.2786294
  35.0080377  15.1815033  25.4440924  11.3574613  16.7144756  25.8860339
  11.4434865  16.3376624  26.6673869  11.9850410  16.3405201  25.4080297
  11.4631164  16.6030238  25.9305816  29.1017444   9.2402659  30.2432261
  29.4827956   8.5580830  30.6300135  28.2980729   8.9512261  30.0607925
  29.0393906   9.0969708  30.2736317  26.3830021  19.7726635  20.9285083
  27.1970660  20.0641528  20.8167855  26.3189162  19.1186497  20.3543376
  26.4932760  19.7191830  20.8273921  22.2537929  23.2448152  26.0557396
  22.8911876  23.0059900  26.6009189  22.6793001  23.4485311  25.3210556
  22.4114095  23.2399163  26.0274553  16.9450572  25.4836489  29.9391699
  16.9854717  25.7551340  29.1111479  17.5045096  26.0078397  30.3549487
  17.0333918  25.6012244  29.8783587  22.8940744  18.4650442  20.3932285
  23.2785897  18.2458149  21.1448830  22.6452365  19.2913388  20.5233361
  22.9142817  18.5548588  20.5233361  23.0609285  11.7456857  40.1094869
  22.7462726  12.5156420  39.8464432  22.7399217  11.1827113  39.5247096
  22.9668204  11.7767126  39.9836219  24.6359401  23.7220575  27.7351182
  24.7098409  23.5595747  28.5893032  25.4528908  23.9110765  27.4911663
  24.7675760  23.7257317  27.8249207  18.3965158  24.0678438  24.7645625
  17.5703276  24.3140175  24.6379904  18.4577149  23.9890519  25.6307683
  18.2839325  24.0923387  24.8734570  20.6141182  10.1347379  25.7241065
  19.7463607  10.2069978  25.7898675  20.9016386  10.9369458  25.9129041
  20.5280930  10.2641526  25.7615832  29.7374070  10.2825238  34.0552387
  30.4827662  10.0935049  33.6415813  29.3211375  10.8083476  33.4966244
  29.7859045  10.3327384  33.9116961  23.1763987  26.6855318  22.4664655
  23.4662285  26.2944299  21.7423882  23.9067468  26.8672023  22.9069931
  23.3270871  26.6549132  22.4247462  37.1136341  17.6534467  29.0057892
  37.6644263  17.0202536  29.2454984  37.0980457  18.1849860  29.6973397
  37.1921538  17.6383415  29.1436750  21.1169902  28.6622701  25.5324805
  20.8970198  28.3720055  26.3251472  20.8964425  28.0037656  25.0042717
  21.0517497  28.5222409  25.5713714  20.0286850  20.7496017  27.7980507
  19.7400098  20.1233488  28.3326234  20.8970198  20.6916304  27.8645187
  20.1147102  20.6483561  27.8871461  30.8164747  15.8930800  28.1162488
  30.4729513  15.1721136  28.4669738  30.9157790  15.6844652  27.2740847
  30.7806790  15.7555004  28.0434168  23.2837858  30.0352090  24.3155497
  23.9361916  29.5028533  24.5446523  22.5863467  29.6820743  24.7023371
  23.2768576  29.9041613  24.4067665  20.2319123  22.3891268  23.7222872
  20.9865091  22.7704307  23.9358334  19.6389736  22.8402412  24.1769568
  20.2555837  22.5120095  23.8205750  22.6925790  14.3454108  38.8480084
  21.8825566  14.6511888  38.7369926  23.1700477  15.0659691  38.9632668
  22.6429269  14.4968710  38.8487155  21.5517350  23.5599829  29.0962987
  21.0298103  23.7000121  29.7814852  21.9391370  22.8010494  29.2865104
  21.5321051  23.4685353  29.2264064  18.5408534  13.6105638  23.1657942
  18.2533329  13.2406909  22.4289889  19.2279002  14.0800493  22.9041647
  18.5997431  13.6252608  23.0173017  27.7484355  25.2995289  23.0823556
  27.5071031  24.5663149  22.6750621  27.9285688  25.8482146  22.4289889
  27.7391979  25.2717680  22.9253779  22.9783675  20.5903848  24.4944478
  22.7826458  21.1978583  23.9004781  23.2018021  19.8971792  24.0136152
  22.9818316  20.5781374  24.3360559  21.3762205  17.4758586  24.6125346
  22.0984857  17.6399744  24.1529152  20.8970198  18.1968251  24.5064686
  21.4125936  17.6056816  24.5290960  29.3355713  13.8122385  29.9922031
  28.4966814  13.8383664  29.7560295  29.4060080  14.4593121  30.5727378
  29.2224106  13.9118511  30.0431148  19.0269822  19.8816659  33.7179486
  19.5390919  20.1600912  33.0688246  18.7406165  20.6205953  34.0842299
  19.0604685  20.0319012  33.6769364  27.7824991  10.7107762  24.7249647
  28.4851344  10.5115511  24.2469606  27.5169180   9.9383705  25.0318491
  27.8471623  10.5670728  24.6995089  16.1136728  14.3886851  24.0143223
  16.2152865  15.1913012  24.3424198  16.9092615  14.1874187  23.7166303
  16.2464634  14.4772749  24.0178578  22.5453547  11.9743047  33.7780528
  22.3536744  11.9898182  34.6279951  23.3952143  12.1706722  33.7547183
  22.6429269  12.0057399  33.9003823  16.9300460  14.5034029  31.7564344
  16.7885952  13.6517970  31.8808852  17.2141024  14.5462690  30.9326550
  16.9508306  14.3833779  31.6531968  27.0839053  16.3401119  25.9008833
  26.8373767  16.2596870  26.7345622  27.4124176  15.5554587  25.7071360
  27.0960296  16.2127384  25.9956356  29.3165187  19.3480854  35.9417996
  29.3113225  18.4760670  35.9460422  30.0226181  19.5469023  35.4687451
  29.4210191  19.2484728  35.8725031  23.0436080  19.0757838  35.3131816
  23.1879456  19.6559046  34.6774926  23.3911729  19.4534134  36.0181670
  23.1163541  19.2178542  35.3230811  25.2155997  18.2748006  33.0956947
  24.4679311  18.4679020  32.6905225  25.3697523  17.4493226  32.8581069
  25.1278425  18.1813117  33.0002353  22.1163835  27.2660609  32.1792843
  22.2653399  26.7063525  31.5266247  22.8963837  27.3452611  32.5625361
  22.2537929  27.1946175  32.1389792  32.4740474  22.4062732  20.4512113
  32.0947283  21.6199870  20.4441402  31.8106720  22.9549589  20.3083757
  32.3198949  22.3707556  20.4292910  24.6417136  27.4375252  33.4577333
  24.5660807  26.7684063  34.0128122  24.5706995  28.1393040  33.9718000
  24.6197743  27.4420160  33.6154181  25.4557774  12.1698557  33.9852351
  25.9130389  12.9022531  34.1125143  25.5314103  11.7465022  34.7439607
  25.5348744  12.2155795  34.1153428  17.6990766  12.4164376  35.0741795
  17.1632955  11.8044735  35.3902562  17.7608530  12.9912512  35.7275461
  17.6286398  12.4111304  35.2177221  29.9285100   5.3488432  27.8546194
  30.0468668   5.8064895  27.1213497  29.7547276   4.5433693  27.5682412
  29.9204271   5.2982204  27.7047128  25.2987383  25.9576251  24.2900939
  26.0637274  25.6885895  23.9683604  25.1965473  25.4726262  25.0071002
  25.3968878  25.8465816  24.3480767  23.3340152  14.1600661  30.8294175
  22.5436227  13.9792121  31.1511511  23.7300775  13.3827613  30.8124470
  23.2757029  14.0188122  30.8746723  27.8206043  22.9888435  16.2700889
  28.5879028  23.0488560  15.8606740  27.3737352  22.4168876  15.7857207
  27.8679470  22.9125011  16.1378599  25.8477983  16.6360920  35.3117674
  25.7837124  17.4970876  35.1837811  25.9875170  16.3192913  34.5113225
  25.8593453  16.7161086  35.1745887  30.7200573  24.6508223  20.7863799
  30.8020411  25.4575209  20.4625250  31.2050315  24.6704182  21.5104572
  30.8037731  24.7728886  20.8450698  24.5297077  19.3293059  29.4533877
  24.1059326  19.5297558  28.7172895  24.3541932  18.4821907  29.5658177
  24.4407957  19.2341841  29.3607567  24.0308770  30.8443572  31.9155334
  24.5204700  30.1454361  31.7330999  23.4593002  30.5467442  32.5031391
  24.0193300  30.6969796  31.9756375  19.8179522  19.8245111  24.8861849
  19.9744141  19.7591913  25.7417841  20.1580115  20.5993663  24.6740529
  19.8912756  19.9294309  24.9816444  26.3558666  19.2002994  23.7555213
  26.8974212  18.6973375  24.2193833  26.6705225  19.1468189  22.9444698
  26.4823063  19.1182415  23.7039025  24.5245116  24.5920346  21.0395241
  24.5937936  23.7334884  21.1788241  25.3033571  24.8092227  20.7114265
  24.6497966  24.4973210  21.0112398  27.5047935  14.0939299  33.8077513
  27.7189905  13.4550213  33.2540867  26.8881835  14.5385122  33.3785375
  27.4453265  14.0649442  33.6627944  28.9152603  27.0158047  25.2531734
  28.5232395  26.7124762  24.5354600  29.0705676  27.8527137  25.0636688
  28.8806193  27.0941884  25.1188231  16.3913783  17.0080061  25.2022617
  16.7712748  17.4264606  24.5382884  15.8169148  17.5893517  25.5091460
  16.3625108  17.1557920  25.1499358  29.6687023  15.7028364  34.7460820
  28.8563705  15.3954254  34.8273993  30.1276958  15.2227364  35.3103532
  29.6167408  15.5864856  34.8415414  26.8962664   7.2039234  28.7964856
  26.0256222   7.1777955  28.7498165  27.1503005   7.0316426  27.9790702
  26.8056224   7.1749378  28.6684993  23.8680644  19.2607201  17.7337999
  24.1573168  20.0372084  18.0081573  23.9552442  18.7495933  18.4352498
  23.9234900  19.2999120  17.8780497  26.7640531  17.1088435  39.5289522
  27.2340162  17.7330552  39.9157397  26.8102411  16.4405411  40.0882737
  26.8408407  17.1023116  39.6689594  23.9211805   9.2145463  30.2538326
  23.4050293   8.5225654  30.3789905  23.3605734   9.8816240  30.2000925
  23.7618318   9.2108720  30.2644392  25.9904038   9.7538423  32.0831179
  25.6035791   9.7787454  32.8644709  25.5036975   9.1880101  31.6305695
  25.8616547   9.6734174  32.1319083  30.2397018  24.4711932  36.1404965
  30.8776738  23.9772127  35.8067421  29.5971109  24.3989332  35.5557192
  30.2391244  24.3870940  36.0047320  31.9654018  16.3201078  30.7070881
  31.5381626  16.2327426  29.9518981  31.3280071  16.4278853  31.2925725
  31.8083625  16.3233738  30.6816323  25.6561180   6.6405408  34.3741439
  26.2854298   7.1765708  34.0962509  25.8247043   6.5482767  35.2255004
  25.7738974   6.7066771  34.4589967  25.4575095  11.4276603  36.6467850
  26.2848524  11.1561752  36.7026465  25.4782941  12.2237445  37.0031668
  25.5827945  11.5056357  36.7083033  20.0344585  18.5740466  29.8338111
  19.1932591  18.4744340  30.0417005  20.2434592  19.3435946  30.1852432
  19.9409277  18.6732509  29.9165426  17.5120151  16.1960003  27.6622862
  17.1176849  16.2703015  26.8872971  16.9560268  16.5817949  28.2131223
  17.3722964  16.2641777  27.6290521  29.1485098   9.1741297  27.3426741
  29.3534692   9.1063605  28.1883738  28.8211522   9.9800118  27.2747918
  29.1300346   9.2827237  27.4586396  23.8461249  16.5021865  29.0835709
  23.5424387  15.9477853  29.6846116  23.1440670  16.6814075  28.5963743
  23.6977459  16.4466647  29.1005414  22.9027347  13.8122385  23.6480410
  23.1787081  13.0941297  23.2357978  23.5026016  14.4107305  23.4401516
  23.0320611  13.7942755  23.5561172  21.9079600  23.7171586  33.7907806
  21.7999955  23.7273648  34.6569864  22.1175382  24.5426366  33.6012760
  21.9229711  23.8412660  33.8911898  32.4018786   9.7273061  26.8229506
  31.7893100  10.2143463  27.2083238  32.4982961   9.0516552  27.3667157
  32.3256684   9.6991370  26.9608364  26.4037867  11.4835902  21.9227005
  26.8581614  11.6546463  22.6474850  26.8777913  10.8704013  21.5224781
  26.5406187  11.4186787  21.9700767  19.9253392  20.9684228  31.2529744
  19.3341326  21.6093726  31.2232759  20.6874416  21.3921845  31.2261043
  19.9501653  21.1260066  31.2444891  20.3214015  12.1286226  31.9197761
  20.7815497  12.2025155  32.6572885  20.3670122  12.9267480  31.5697583
  20.3964571  12.2580373  31.9770518  21.9697365  12.7952921  36.4869789
  21.5782930  12.1486268  36.9225566  22.1383228  13.3864356  37.1064044
  21.9368275  12.7867189  36.6432495  23.7450887  18.1878436  23.0272013
  24.4892932  18.5752713  23.2654962  23.8911583  17.3435862  23.1912500
  23.8761472  18.1208909  23.0865982  25.6630462   9.9828695  28.0603874
  24.8166508  10.1551503  27.9345224  25.6601595   9.1778039  28.3969702
  25.5377612   9.8889724  28.0915001  26.7328763  13.7603910  28.9265932
  26.2588717  13.2345672  29.4371243  27.1046899  13.2133383  28.3580793
  26.7178652  13.6019906  28.9181079  17.1101793  15.7575417  34.2949478
  17.9727406  15.6571126  34.2086808  16.7793576  15.1770126  33.7335050
  17.1886989  15.6567043  34.1994884  32.9965493  18.8206285  30.3372712
  32.7563716  17.9812701  30.3415139  33.4757501  18.9006452  31.0613486
  33.0317677  18.7087685  30.4447515  28.6612263  14.6540464  21.9891686
  28.1335281  14.7369208  21.2997395  29.1207971  15.3958336  21.9856330
  28.6514113  14.7761127  21.8866381  34.9970680  15.6007743  28.2901972
  34.7580450  15.5603577  27.4522756  35.1604582  16.4478895  28.4167693
  34.9860984  15.7199828  28.1855454  31.6016711  19.9857692  34.2207017
  32.3250909  19.5330218  34.0418037  31.3366673  20.2662358  33.4379345
  31.6697984  19.9608660  34.0785732  20.4703579  14.5817866  30.9559896
  19.8456649  14.5936257  30.3485849  20.1349174  15.0578041  31.6051136
  20.3289071  14.6536383  30.9616464  17.1829255  22.6418326  32.3963660
  16.6529179  21.9510765  32.4458635  17.4554348  22.6328511  31.5676369
  17.1453977  22.5385457  32.2811076  28.2149345  23.2244028  21.1201343
  28.9383544  23.6902141  20.9765916  27.7749936  23.2917638  20.3698940
  28.2565037  23.3027865  20.9886124  27.3835500  20.0841570  32.3702032
  26.7692493  19.5399621  32.6650667  27.9002785  19.5705807  31.8907848
  27.3691163  19.9277979  32.3426260  26.6231797  21.1545840  30.1046330
  26.1959405  20.5295559  29.6711766  26.6156742  20.8720762  30.9305338
  26.5590938  21.0198621  30.1626158  19.7394324  16.1911013  33.1734764
  19.8987811  15.4354337  33.5786486  19.5587218  16.7401953  33.8275502
  19.7359683  16.1604827  33.3297470  27.6814627   8.3572249  33.7285554
  27.1855189   8.5535923  33.0377121  28.4383689   8.7564917  33.5574356
  27.7201452   8.4449983  33.6005691  24.9517507  12.0314595  30.3188864
  24.9759994  11.4974707  29.6301644  25.2028981  11.5231904  30.9814455
  24.9927426  11.8775499  30.3153509  12.4625097  19.3146090  29.7532008
  12.3568546  19.2692934  28.8884093  11.7125317  19.6599870  30.0346293
  12.3360700  19.3586998  29.6669338  21.2318829  10.7585413  29.6994609
  21.2717201  11.2594620  30.4129316  20.4068494  10.8495807  29.4300532
  21.1158355  10.8467229  29.7645147  23.4148442  20.3246153  37.8014903
  22.5644073  20.4617867  37.9372548  23.5776570  19.5909931  38.2462605
  23.3132306  20.2360254  37.8870502  22.6533193  17.2745923  31.9968508
  21.8225122  17.4419741  31.7903756  22.5984710  16.8981874  32.7817393
  22.5222607  17.2435654  32.0817036  20.4616976  10.7654816  37.6324918
  21.0869679  10.2216949  37.9054351  20.0067456  10.2849733  37.0632709
  20.4865236  10.6144297  37.5886512  21.0269236  15.5501514  22.5258625
  21.1672197  16.0473979  23.2287267  21.5251769  14.8487809  22.6672839
  21.1210317  15.5203493  22.6510204  21.0569459  16.4168625  19.8551202
  21.6914538  17.0129050  19.7900664  21.1395070  16.1172083  20.6697072
  21.1626010  16.4609534  19.9654289  22.6348442  12.3482601  19.8296644
  22.9564283  11.8685683  19.1755907  22.8975385  13.1582247  19.6387456
  22.7214467  12.3972499  19.7052136  25.8645414  23.3701475  33.3495460
  25.3570505  23.9237322  33.7936091  25.5672061  23.4309765  32.5314235
  25.7450299  23.4607786  33.2943917  28.0307597  11.7354795  32.1920123
  28.4562668  11.2827321  31.5803650  27.4164590  11.1814866  32.4684911
  28.0036242  11.5868771  32.1425149  17.5622447  18.6136466  23.1240748
  18.0714676  19.2100974  23.5052054  18.0356719  18.3462440  22.4417168
  17.7065822  18.6622282  23.0795271  28.4753195  27.2864733  21.2799404
  27.7582504  27.1125595  20.8146641  29.1259932  27.0517305  20.7474890
  28.4655045  27.2260525  21.1328622  26.4701819   8.2069895  25.6010700
  25.8270137   8.0567541  26.1695839  26.1301226   7.9612240  24.8359805
  26.3246897   8.1482017  25.5713716  31.0601166  16.1629321  25.0240709
  30.3892356  16.7059024  24.8953774  31.7540916  16.6324177  24.7822404
  31.0630033  16.3127593  24.9696237  31.2229293  12.6185205  27.9331082
  31.5756903  12.1914928  28.6076881  30.3644095  12.5336049  28.0632159
  31.1478738  12.5429946  28.0526093  19.9212978  15.2492725  25.9913929
  19.2024968  15.6656857  26.2586792  20.2925341  15.8146964  25.4405567
  19.8704910  15.3942006  25.9496736  29.2212559  15.8820574  31.8815924
  29.2010487  15.7003869  32.7350703  29.2691760  16.7532592  31.8575508
  29.2247200  15.9837112  32.0039219  27.1658889  22.4707766  37.8064401
  27.1254744  21.8257443  37.2209557  27.9782207  22.4144383  38.1189813
  27.2802043  22.3666732  37.7661350  23.7566357  28.5226492  27.7089552
  23.3426755  27.8600622  27.3193394  24.4413731  28.6704350  27.1885246
  23.7964728  28.4467150  27.5746049  27.1231651  27.6816577  28.4613168
  26.7247934  27.7918847  27.6933989  26.5082870  27.8898643  29.0439728
  26.9730540  27.7290145  28.4344468  25.6959553  14.2890725  21.3287308
  25.1024392  14.6107721  20.7771875  25.7334830  13.4431820  21.1208414
  25.6133942  14.2115053  21.2170079  32.6553353   7.7403617  28.8615395
  32.1484218   7.0332756  28.7936572  33.4520787   7.4096806  28.9916471
  32.6980593   7.5876768  28.8714390  22.8536598  16.1004702  34.3614159
  22.3415501  15.4925885  34.7199190  22.6816094  16.8161295  34.8288134
  22.7526235  16.1168001  34.4830382  17.7002312  14.5442277  37.0116520
  17.5304903  15.2043652  36.4664727  17.2568262  14.7548839  37.7329010
  17.6101646  14.6728260  37.0378150  21.6262132  12.7846775  26.0543254
  22.1019498  13.1463855  25.4193435  21.1250731  13.4403243  26.3343397
  21.6227491  12.9340964  26.0019995  26.7305668  14.0228947  36.8016414
  27.2877098  13.7942756  36.1694880  26.4066733  14.7834612  36.5251627
  26.7652078  14.1012784  36.6672911  14.6004377  17.4489143  32.2705010
  14.0531096  16.7789789  32.3885879  15.3896755  17.0818991  32.3348477
  14.6356561  17.2954129  32.2973711  24.4488785  17.1096600  37.7668421
  25.2000112  17.4248277  38.0807975  24.6411362  16.9075771  36.9402343
  24.5880200  17.1263982  37.6911817  23.6688785  14.9287975  19.4216638
  24.0487750  14.9467604  18.6367753  22.9281381  15.3741964  19.3007485
  23.6157623  14.9969750  19.2880206  31.2974076  13.2370166  25.0092217
  31.2968302  13.0818823  25.8676493  31.0930256  14.0833153  24.9533602
  31.2673853  13.3390787  25.1280156  13.3591346  16.6609951  29.4251033
  13.1813108  16.2086560  30.1505949  13.0710369  17.4636112  29.6089511
  13.2904300  16.7132509  29.5594536  29.0214928  17.9167668  28.6628424
  29.5168593  17.1990663  28.6232444  28.2114703  17.6138466  28.5482911
  28.9758821  17.7665314  28.6402149  24.4673539  21.7665481  20.8125428
  23.6584862  21.4432155  20.7658738  24.9748448  21.0598704  20.7453677
  24.4223206  21.6146798  20.7955722  15.0963816  19.1937675  26.5372792
  14.2309336  19.1823365  26.4255564  15.1962632  19.0067897  27.3843932
  14.9837983  19.1643736  26.6461737  31.0866746  20.6671356  31.3505552
  31.5121818  20.1445778  30.7975977  30.7223666  21.2652193  30.8294175
  31.0953349  20.6781583  31.1914562  20.7220826  28.9635573  30.1102898
  21.0367385  29.7771962  30.1180680  21.1314240  28.5785792  30.7785057
  20.8288924  29.0264276  30.2106989  27.6745346  24.3805620  27.6806710
  28.1456524  25.0945883  27.8496695  28.0105524  23.7804370  28.2166579
  27.7940461  24.3977084  27.7839086  29.7622330  25.9906933  39.8598782
  29.8719296  25.2015494  40.2155529  30.0913227  25.9012870  39.0573120
  29.8274736  25.8612786  39.7941173  24.5914841   9.1533091  34.6364805
  24.7242746   8.3564084  34.9645780  24.9759994   9.6799494  35.2163080
  24.6671170   9.1133007  34.7708308  28.3119292  24.1723554  34.4434402
  27.7640238  23.5481438  34.1754468  28.7732321  24.3617826  33.7278482
  28.2986502  24.1082604  34.2984834  27.6647196   6.0763417  31.2345898
  26.8593160   5.9661146  31.5513736  27.5353931   6.1775872  30.3775764
  27.5267329   6.0747087  31.1553938  31.1213157  12.2408909  31.8285595
  30.5376145  12.7418115  31.4163162  31.4417451  11.7338465  31.1949918
  31.0826332  12.2400744  31.6744102  23.6607956  11.1549503  22.1044270
  24.4823650  11.3247816  21.8625964  23.1977607  11.3096764  21.3810567
  23.7139118  11.2031236  21.9615914  22.2503288   9.1492266  32.8842698
  22.7947701   8.8083392  33.4747040  22.3040223  10.0077727  33.0263983
  22.3392407   9.2247525  32.9924572  18.0633846  22.9108682  29.7581506
  18.6678704  22.8704516  29.1295327  17.8561159  23.7579834  29.7885562
  18.1222744  23.0296684  29.6697623  27.8777619  25.1774627  30.9743744
  28.6975992  25.0337593  31.2360039  27.5971696  25.8020826  31.5160182
  27.9574362  25.2484979  31.0931683  13.2985129  21.8943299  29.6280429
  13.2009407  21.0839571  29.9370486  14.0813998  21.8735093  29.2426698
  13.4001265  21.7710389  29.6167292  37.3857053  41.8803217  19.8862329
  37.0508422  42.5580139  19.4506551  37.8983924  41.4908528  19.2979201
  37.4122634  41.9227795  19.7349121  26.7081894  37.4916526  26.3491888
  26.4732078  36.6584179  26.2424157  26.8467535  37.7721192  25.5353089
  26.6937556  37.4100030  26.2134243  29.0071981  29.6602257  29.2476196
  28.3877013  29.0694904  29.0786211  28.9055845  30.2513692  28.6140519
  28.9009657  29.6606339  29.1281185  28.7341114  33.2054538  31.4919765
  28.6099811  33.7916984  32.1269584  29.3859399  32.7114734  31.7932040
  28.8114764  33.2193343  31.6305694  32.7155190  36.6547436  20.8224423
  32.1312405  37.1597467  21.2290287  32.3125285  36.4289823  20.0821015
  32.5694494  36.6955684  20.7729448  30.8379759  27.2376803  19.8430994
  30.6555333  27.4548683  19.0171987  31.7005372  27.3515815  19.8989609
  30.9384349  27.2866701  19.7285481  26.4784039  35.7165891  31.7401709
  26.2122455  34.9005007  31.8992700  26.4922603  35.7619046  30.8697225
  26.4408762  35.6022796  31.6355191  30.3841786  30.5150975  18.3553467
  29.6699963  30.2289155  18.7675900  30.8685755  30.8547601  18.9959855
  30.3501150  30.5232625  18.5109102  26.8877453  36.5024670  29.0213454
  26.7053026  36.4771556  28.1685746  27.6227122  36.9723608  29.0602362
  26.9691517  36.5686032  28.9011372  26.8548363  33.3818171  29.1712520
  27.4321866  33.2454622  29.8104765  26.1562425  32.9253955  29.4258104
  26.8369385  33.2940437  29.3034810  22.3307197  32.2330064  25.8860339
  22.4167448  31.8561932  26.6673869  22.9582994  31.8590509  25.4080297
  22.4363748  32.1215546  25.9305816  27.9183155  41.0021797  29.9391699
  27.9587300  41.2736648  29.1111479  28.4777679  41.5263705  30.3549487
  28.0066501  41.1197552  29.8783587  29.3697741  39.5863746  24.7645625
  28.5435859  39.8325483  24.6379904  29.4309733  39.5075827  25.6307683
  29.2571908  39.6108695  24.8734570  34.1496570  42.2040626  22.4664655
  34.4394869  41.8129607  21.7423882  34.8800051  42.3857331  22.9069931
  34.3003455  42.1734440  22.4247462  31.0019433  36.2681325  27.7980507
  30.7132682  35.6418796  28.3326234  31.8702781  36.2101612  27.8645187
  31.0879685  36.1668869  27.8871461  31.2051707  37.9076576  23.7222872
  31.9597675  38.2889615  23.9358334  30.6122319  38.3587720  24.1769568
  31.2288420  38.0305403  23.8205750  29.5141117  29.1290946  23.1657942
  29.2265913  28.7592217  22.4289889  30.2011586  29.5985801  22.9041647
  29.5730015  29.1437915  23.0173017  32.3494789  32.9943894  24.6125346
  33.0717441  33.1585052  24.1529152  31.8702782  33.7153559  24.5064686
  32.3858520  33.1242124  24.5290960  27.0869312  29.9072159  24.0143223
  27.1885448  30.7098320  24.3424198  27.8825199  29.7059494  23.7166303
  27.2197218  29.9958057  24.0178578  27.9033044  30.0219337  31.7564344
  27.7618536  29.1703277  31.8808852  28.1873607  30.0647997  30.9326550
  27.9240890  29.9019087  31.6531968  28.6723349  27.9349684  35.0741795
  28.1365539  27.3230043  35.3902562  28.7341114  28.5097820  35.7275461
  28.6018982  27.9296612  35.2177221  38.7938627  38.5073743  16.2700889
  39.5611612  38.5673868  15.8606740  38.3469936  37.9354184  15.7857207
  38.8412054  38.4310319  16.1378599  30.7912105  35.3430418  24.8861849
  30.9476724  35.2777221  25.7417841  31.1312698  36.1178971  24.6740529
  30.8645340  35.4479617  24.9816444  27.3646367  32.5265369  25.2022617
  27.7445331  32.9449914  24.5382884  26.7901731  33.1078825  25.5091460
  27.3357691  32.6743228  25.1499358  34.8413227  34.7792509  17.7337999
  35.1305752  35.5557392  18.0081573  34.9285026  34.2681241  18.4352498
  34.8967483  34.8184427  17.8780497  28.4852735  31.7145311  27.6622862
  28.0909433  31.7888322  26.8872971  27.9292852  32.1003257  28.2131223
  28.3455547  31.7827085  27.6290521  28.0834377  31.2760724  34.2949478
  28.9459990  31.1756434  34.2086808  27.7526160  30.6955434  33.7335050
  28.1619573  31.1752351  34.1994884  31.6277911  28.4428292  17.0132581
  31.2790716  29.0948017  17.4764130  31.1474357  28.4285405  16.2856452
  31.5048155  28.5371345  16.9743672  28.1561838  38.1603634  32.3963660
  27.6261763  37.4696072  32.4458635  28.4286931  38.1513819  31.5676369
  28.1186560  38.0570765  32.2811076  30.7126908  31.7096321  33.1734764
  30.8720395  30.9539645  33.5786486  30.5319802  32.2587261  33.8275502
  30.7092267  31.6790135  33.3297470  23.4357680  34.8331398  29.7532008
  23.3301129  34.7878242  28.8884093  22.6857900  35.1785178  30.0346293
  23.3093283  34.8772306  29.6669338  28.5355030  34.1321774  23.1240748
  29.0447260  34.7286282  23.5052054  29.0089303  33.8647748  22.4417168
  28.6798406  34.1807590  23.0795271  28.6734896  30.0627585  37.0116520
  28.5037486  30.7228960  36.4664727  28.2300846  30.2734147  37.7329010
  28.5834230  30.1913568  37.0378150  25.5736961  32.9674451  32.2705010
  25.0263680  32.2975097  32.3885879  26.3629339  32.6004299  32.3348477
  25.6089144  32.8139437  32.2973711  24.3323930  32.1795259  29.4251033
  24.1545691  31.7271868  30.1505949  24.0442952  32.9821420  29.6089511
  24.2636883  32.2317817  29.5594536  26.0696400  34.7122983  26.5372792
  25.2041919  34.7008673  26.4255564  26.1695216  34.5253205  27.3843932
  25.9570567  34.6829044  26.6461737  29.0366430  38.4293990  29.7581506
  29.6411287  38.3889824  29.1295327  28.8293742  39.2765142  29.7885562
  29.0955327  38.5481992  29.6697623  24.2717712  37.4128607  29.6280429
  24.1741990  36.6024879  29.9370486  25.0546582  37.3920400  29.2426698
  24.3733849  37.2895697  29.6167292  42.9064677  56.9763155  24.4576782
  42.1547577  56.5978694  24.2292827  43.3550689  57.0081589  23.7095592
  42.8614344  56.9248762  24.3134284  48.3589637  57.3988525  19.8862329
  48.0241005  58.0765446  19.4506551  48.8716507  57.0093836  19.2979201
  48.3855218  57.4413103  19.7349121  47.8993928  59.3502794  25.8273441
  48.2833308  59.9189692  25.2878216  47.8353069  58.6252304  25.3479257
  47.9467355  59.3278257  25.6767303  44.4849433  56.9881547  26.7239554
  44.5859796  56.1781901  27.0336682  43.8891178  56.8938494  26.0939233
  44.4121972  56.8546576  26.6765793  53.1440427  50.9277088  22.2104930
  53.0279953  51.6784775  22.6397068  53.9396314  50.6701042  22.4601017
  53.2445016  51.0011935  22.3109022  44.3250173  61.9059137  28.1254411
  44.9687628  62.3472301  28.5150569  44.6506428  61.1012563  28.0384669
  44.4682001  61.8524331  28.1699888  45.0270752  54.9171112  23.4974272
  45.3486594  55.4576319  22.8935580  45.6742849  54.3467883  23.6296562
  45.1696808  54.9130287  23.4281308  47.2660396  53.3057551  23.5688450
  47.7054031  52.6974652  24.0143223  47.1165059  52.9264925  22.7973915
  47.3081862  53.1596023  23.5207618  47.2718130  54.7456469  30.4214168
  47.5541373  53.9507875  30.2000924  48.0004291  55.2237057  30.4419229
  47.4207694  54.6991066  30.3917184  50.8669733  51.6584733  20.5219220
  50.7821028  52.5145699  20.6668789  51.3554116  51.3829057  21.1901379
  50.9258630  51.7442054  20.6421301  43.6887774  52.1732744  20.8224423
  43.1044989  52.6782775  21.2290287  43.2857869  51.9475131  20.0821015
  43.5427077  52.2140992  20.7729448  39.2431802  57.8887505  27.6248094
  38.7599380  58.6137994  27.6007678  40.0555120  58.1863635  27.7358252
  39.2922550  58.0389859  27.6375374  45.3145956  56.6819686  30.2297909
  44.7972898  56.3227101  29.6259217  46.0120347  56.1581860  30.2403975
  45.3411537  56.5517374  30.1428167  48.9709548  57.1314500  36.1914082
  49.0592894  56.9440640  37.0392292  49.3999261  56.4851929  35.7918929
  49.0471651  57.0077507  36.2585833  46.5380008  56.4145660  35.1731744
  45.9750843  56.0018269  35.6971405  47.3001031  56.3398565  35.5924887
  46.5674457  56.3423060  35.3124744  42.0975999  58.4043681  27.7768374
  42.7996579  57.8895670  27.8341131  42.0173482  58.7317832  28.5815249
  42.1899760  58.3757907  27.9041166  41.4226775  54.5950033  27.2853982
  42.2615674  54.8272966  27.3327744  41.4538544  53.7254344  27.2161018
  41.5508492  54.5006979  27.2818627  42.0479478  55.0150908  31.5867288
  42.5877703  54.8722039  32.2570660  41.3649424  55.4147659  31.9551314
  42.0271632  55.0530579  31.7401709  49.0829607  56.5623519  38.8557865
  49.8670024  56.6754366  39.2213608  48.8826202  55.7364656  39.0516551
  49.1695633  56.4570238  38.9392251  41.3574370  46.0336283  18.3553467
  40.6432547  45.7474463  18.7675900  41.8418339  46.3732909  18.9959855
  41.3233733  46.0417933  18.5109102  49.2400001  58.4733621  32.5024321
  48.4415247  58.2333121  32.7598190  49.6886012  58.5248014  33.2491369
  49.1874612  58.4456012  32.6509245  48.5321688  54.5366237  18.7315276
  48.9472836  54.2051261  18.0399771  47.7013617  54.3035139  18.6035412
  48.4709697  54.4537493  18.6106123  51.2255078  50.7876797  17.9176477
  51.1435240  50.8578984  18.7831464  51.8634798  51.3506540  17.7260218
  51.3074915  50.8815768  18.0166427  48.3295188  50.8097251  20.9285083
  49.1435827  51.1012144  20.8167855  48.2654329  50.1557113  20.3543376
  48.4397927  50.7562446  20.8273921  44.2003096  54.2818768  26.0557396
  44.8377043  54.0430516  26.6009189  44.6258168  54.4855927  25.3210556
  44.3579263  54.2769778  26.0274553  38.8915739  56.5207105  29.9391699
  38.9319884  56.7921956  29.1111479  39.4510263  57.0449013  30.3549487
  38.9799085  56.6382860  29.8783587  44.8405911  49.5021058  20.3932285
  45.2251064  49.2828765  21.1448830  44.5917532  50.3284003  20.5233361
  44.8607984  49.5919204  20.5233361  46.5824568  54.7591191  27.7351182
  46.6563577  54.5966363  28.5893032  47.3994075  54.9481380  27.4911663
  46.7140927  54.7627933  27.8249207  40.3430325  55.1049054  24.7645625
  39.5168443  55.3510791  24.6379904  40.4042316  55.0261135  25.6307683
  40.2304492  55.1294003  24.8734570  45.1229154  57.7225934  22.4664655
  45.4127452  57.3314915  21.7423882  45.8532635  57.9042639  22.9069931
  45.2736038  57.6919748  22.4247462  43.0635070  59.6993316  25.5324805
  42.8435365  59.4090671  26.3251472  42.8429592  59.0408271  25.0042717
  42.9982664  59.5593025  25.5713714  41.9752017  51.7866633  27.7980507
  41.6865265  51.1604104  28.3326234  42.8435365  51.7286920  27.8645187
  42.0612269  51.6854177  27.8871461  45.2303025  61.0722706  24.3155497
  45.8827083  60.5399149  24.5446523  44.5328634  60.7191359  24.7023371
  45.2233743  60.9412229  24.4067665  42.1784290  53.4261884  23.7222872
  42.9330258  53.8074923  23.9358334  41.5854903  53.8773028  24.1769568
  42.2021004  53.5490711  23.8205750  43.4982517  54.5970445  29.0962987
  42.9763270  54.7370737  29.7814852  43.8856537  53.8381110  29.2865104
  43.4786218  54.5055969  29.2264064  49.6949522  56.3365905  23.0823556
  49.4536198  55.6033765  22.6750621  49.8750855  56.8852762  22.4289889
  49.6857146  56.3088296  22.9253779  44.9248842  51.6274464  24.4944478
  44.7291625  52.2349199  23.9004781  45.1483188  50.9342408  24.0136152
  44.9283483  51.6151990  24.3360559  44.0629002  58.3031225  32.1792843
  44.2118566  57.7434141  31.5266247  44.8429004  58.3823227  32.5625361
  44.2003096  58.2316791  32.1389792  54.4205642  53.4433348  20.4512113
  54.0412450  52.6570486  20.4441402  53.7571887  53.9920205  20.3083757
  54.2664116  53.4078172  20.4292910  46.5882303  58.4745868  33.4577333
  46.5125974  57.8054679  34.0128122  46.5172162  59.1763656  33.9718000
  46.5662910  58.4790776  33.6154181  47.2452550  56.9946867  24.2900939
  48.0102441  56.7256511  23.9683604  47.1430640  56.5096877  25.0071002
  47.3434045  56.8836432  24.3480767  49.7671210  54.0259051  16.2700889
  50.5344195  54.0859176  15.8606740  49.3202519  53.4539492  15.7857207
  49.8144638  53.9495627  16.1378599  52.6665740  55.6878839  20.7863799
  52.7485578  56.4945825  20.4625250  53.1515483  55.7074798  21.5104572
  52.7502898  55.8099501  20.8450698  45.9773937  61.8814188  31.9155334
  46.4669867  61.1824977  31.7330999  45.4058169  61.5838058  32.5031391
  45.9658467  61.7340412  31.9756375  41.7644689  50.8615726  24.8861849
  41.9209308  50.7962529  25.7417841  42.1045282  51.6364279  24.6740529
  41.8377923  50.9664925  24.9816444  48.3023833  50.2373610  23.7555213
  48.8439379  49.7343991  24.2193833  48.6170392  50.1838805  22.9444698
  48.4288230  50.1553031  23.7039025  50.8617771  58.0528663  25.2531734
  50.4697562  57.7495378  24.5354600  51.0170843  58.8897753  25.0636688
  50.8271360  58.1312500  25.1188231  45.8145811  50.2977817  17.7337999
  46.1038336  51.0742700  18.0081573  45.9017610  49.7866549  18.4352498
  45.8700067  50.3369735  17.8780497  52.1862185  55.5082548  36.1404965
  52.8241905  55.0142743  35.8067421  51.5436276  55.4359948  35.5557192
  52.1856411  55.4241556  36.0047320  43.8544768  54.7542202  33.7907806
  43.7465122  54.7644264  34.6569864  44.0640549  55.5796982  33.6012760
  43.8694879  54.8783276  33.8911898  51.6308076  57.4564156  28.6861768
  51.4327764  57.9454970  27.9917980  51.0095787  57.6605397  29.2645902
  51.5095640  57.5580694  28.6684992  45.6916054  49.2249052  23.0272013
  46.4358099  49.6123329  23.2654962  45.8376750  48.3806478  23.1912500
  45.8226639  49.1579525  23.0865982  42.6010495  43.9613600  17.0132581
  42.2523299  44.6133325  17.4764130  42.1206941  43.9470713  16.2856452
  42.4780739  44.0556653  16.9743672  50.1614512  54.2614644  21.1201343
  50.8848711  54.7272757  20.9765916  49.7215103  54.3288253  20.3698940
  50.2030204  54.3398481  20.9886124  43.0034626  47.4539241  19.8551202
  43.6379705  48.0499666  19.7900664  43.0860237  47.1542699  20.6697072
  43.1091177  47.4980149  19.9654289  39.5087614  49.6507082  23.1240748
  40.0179843  50.2471590  23.5052054  39.9821886  49.3833056  22.4417168
  39.6530989  49.6992897  23.0795271  50.4218362  58.3235349  21.2799404
  49.7047672  58.1496211  20.8146641  51.0725099  58.0887921  20.7474890
  50.4120212  58.2631141  21.1328622  47.0553067  59.3396649  30.2552467
  46.8318721  58.5815479  30.6236494  46.5662910  59.3694670  29.5332907
  46.9496516  59.2318874  30.2029208  45.7031524  59.5597107  27.7089552
  45.2891922  58.8971238  27.3193394  46.3878898  59.7074966  27.1885246
  45.7429895  59.4837766  27.5746049  49.0696818  58.7187193  28.4613168
  48.6713101  58.8289463  27.6933989  48.4548037  58.9269259  29.0439728
  48.9195707  58.7660761  28.4344468  56.8038661  53.2939159  21.8456259
  57.1872266  54.0430516  22.0754356  56.0082774  53.5404979  21.5868248
  56.7432443  53.4408853  21.8413833  46.4138706  52.8036097  20.8125428
  45.6050029  52.4802771  20.7658738  46.9213615  52.0969319  20.7453677
  46.3688373  52.6517414  20.7955722  42.6685993  60.0006189  30.1102898
  42.9832552  60.8142578  30.1180680  43.0779407  59.6156408  30.7785057
  42.7754091  60.0634891  30.2106989  49.6210513  55.4176236  27.6806710
  50.0921691  56.1316498  27.8496695  49.9570692  54.8174986  28.2166579
  49.7405628  55.4347700  27.7839086  51.7087498  57.0277549  39.8598782
  51.8184463  56.2386110  40.2155529  52.0378394  56.9383485  39.0573120
  51.7739903  56.8983402  39.7941173  49.8242786  56.2145243  30.9743744
  50.6441159  56.0708209  31.2360039  49.5436863  56.8391442  31.5160182
  49.9039529  56.2855595  31.0931683  66.2956436  63.8710094  23.9386620
  66.2650440  64.7254731  24.1104889  66.8937785  63.5705387  24.4972764
  66.3793594  63.9526591  24.0461422  59.4956121  62.9585745  28.6939550
  58.6394016  63.1194244  28.7448667  59.5423775  62.0877809  28.7144611
  59.3755232  62.8536547  28.7045616  53.8797261  72.4948463  24.4576782
  53.1280160  72.1164002  24.2292827  54.3283272  72.5266897  23.7095592
  53.8346927  72.4434070  24.3134284  62.8049837  69.2272271  38.3000007
  63.5116605  68.7324302  38.4286941  62.9937773  69.6681353  37.5702665
  62.9377743  69.2190621  38.2109052  59.3322220  72.9173833  19.8862329
  58.9973589  73.5950754  19.4506551  59.8449091  72.5279144  19.2979201
  59.3587802  72.9598411  19.7349121  58.8726512  74.8688101  25.8273441
  59.2565891  75.4375000  25.2878216  58.8085653  74.1437612  25.3479257
  58.9199939  74.8463565  25.6767303  62.3407942  65.0177789  31.3371202
  62.8863902  65.6962876  31.3965172  62.2824818  64.8765250  30.4772784
  62.4123856  65.0969791  31.2183263  55.4582017  72.5066855  26.7239554
  55.5592380  71.6967209  27.0336682  54.8623762  72.4123802  26.0939233
  55.3854555  72.3731884  26.6765793  64.1173011  66.4462396  22.2104930
  64.0012536  67.1970082  22.6397068  64.9128897  66.1886350  22.4601017
  64.2177600  66.5197243  22.3109022  55.2982756  77.4244445  28.1254411
  55.9420212  77.8657609  28.5150569  55.6239012  76.6197871  28.0384669
  55.4414585  77.3709639  28.1699888  48.6547061  68.5287142  26.3491888
  48.4197245  67.6954794  26.2424157  48.7932702  68.8091808  25.5353089
  48.6402724  68.4470645  26.2134243  50.9537148  60.6972873  29.2476196
  50.3342180  60.1065520  29.0786211  50.8521012  61.2884308  28.6140519
  50.8474824  60.6976955  29.1281185  56.0003336  70.4356419  23.4974272
  56.3219177  70.9761627  22.8935580  56.6475433  69.8653191  23.6296562
  56.1429391  70.4315595  23.4281308  58.0505044  62.4372414  23.5808659
  58.7485209  62.6160542  24.0730122  58.3657377  61.9142754  22.9579048
  58.2000381  62.3866186  23.5610669  50.6806282  64.2425154  31.4919765
  50.5564978  64.8287600  32.1269584  51.3324566  63.7485350  31.7932040
  50.7579931  64.2563959  31.6305694  58.2392980  68.8242859  23.5688450
  58.6786615  68.2159960  24.0143223  58.0897642  68.4450233  22.7973915
  58.2814445  68.6781331  23.5207618  55.7064623  67.4186871  30.7707276
  56.3513625  66.9259314  30.4518224  55.9466400  67.5611658  31.5973354
  55.8375208  67.3664313  30.8456809  58.2450714  70.2641777  30.4214168
  58.5273957  69.4693183  30.2000924  58.9736874  70.7422365  30.4419229
  58.3940278  70.2176374  30.3917184  61.8402316  67.1770041  20.5219220
  61.7553611  68.0331007  20.6668789  62.3286699  66.9014365  21.1901379
  61.8991213  67.2627362  20.6421301  62.7720749  63.7954835  22.0216955
  62.2432221  64.0114468  22.6814261  63.2945769  64.4890973  21.9417924
  62.7709202  63.9297972  22.1072554  68.2268802  69.3701139  27.3949999
  67.3966505  69.5811783  27.5583416  68.1778055  68.5438194  27.1192283
  68.0975538  69.2790746  27.3787365  54.6620357  67.6918052  20.8224423
  54.0777572  68.1968083  21.2290287  54.2590452  67.4660439  20.0821015
  54.5159661  67.7326300  20.7729448  50.2164386  73.4072813  27.6248094
  49.7331964  74.1323302  27.6007678  51.0287704  73.7048943  27.7358252
  50.2655133  73.5575166  27.6375374  56.2878540  72.2004993  30.2297909
  55.7705481  71.8412408  29.6259217  56.9852931  71.6767168  30.2403975
  56.3144121  72.0702681  30.1428167  59.9442132  72.6499808  36.1914082
  60.0325478  72.4625948  37.0392292  60.3731844  72.0037237  35.7918929
  60.0204234  72.5262815  36.2585833  57.5112592  71.9330968  35.1731744
  56.9483426  71.5203577  35.6971405  58.2733615  71.8583873  35.5924887
  57.5407040  71.8608368  35.3124744  59.1197572  63.9383704  19.2993343
  59.3593575  64.1461687  18.4868686  59.4413413  63.1341212  19.4082288
  59.2034729  63.8497805  19.1953896  53.0708583  73.9228989  27.7768374
  53.7729162  73.4080978  27.8341131  52.9906066  74.2503140  28.5815249
  53.1632343  73.8943215  27.9041166  67.7222760  62.0171540  31.1900421
  66.8851182  62.0873727  31.4248015  67.6910991  62.0196035  30.3174723
  67.5941043  62.0281767  31.0959969  54.1187490  64.1604576  36.9048789
  54.2907993  64.0510470  37.7534071  54.6556847  64.8058981  36.6679982
  54.2232494  64.2396577  36.9953886  52.7844926  58.2747418  19.8430994
  52.6020500  58.4919299  19.0171987  53.6470539  58.3886431  19.8989609
  52.8849516  58.3237316  19.7285481  52.3959358  70.1135341  27.2853982
  53.2348258  70.3458273  27.3327744  52.4271128  69.2439652  27.2161018
  52.5241076  70.0192287  27.2818627  53.0212061  70.5336216  31.5867288
  53.5610286  70.3907347  32.2570660  52.3382008  70.9332967  31.9551314
  53.0004215  70.5715887  31.7401709  62.4452946  66.2127216  26.7812312
  63.2010461  66.6458731  26.8201221  62.5515271  65.5631986  27.3546948
  62.5723117  66.1804700  26.8710338  65.4833117  70.0400494  27.5314715
  65.0468349  70.0437236  28.2873686  65.1496033  70.7205993  27.0994293
  65.3695737  70.1412950  27.5795548  60.0562191  72.0808827  38.8557865
  60.8402608  72.1939674  39.2213608  59.8558786  71.2549964  39.0516551
  60.1428216  71.9755546  38.9392251  48.4249206  66.7536507  31.7401709
  48.1587622  65.9375623  31.8992700  48.4387771  66.7989662  30.8697225
  48.3873929  66.6393411  31.6355191  65.4030600  57.0814322  29.7744143
  66.0456509  57.1512426  30.3606058  65.6553621  56.4143544  29.2723685
  65.5352732  56.9940670  29.7871422  52.3306953  61.5521591  18.3553467
  51.6165131  61.2659771  18.7675900  52.8150922  61.8918217  18.9959855
  52.2966317  61.5603241  18.5109102  53.1747813  60.2914885  34.3868717
  52.4819610  59.8211865  34.6329449  53.7908140  60.0653189  34.9610424
  53.1632343  60.1882017  34.5077870  60.2132584  73.9918929  32.5024321
  59.4147830  73.7518429  32.7598190  60.6618596  74.0433322  33.2491369
  60.1607196  73.9641320  32.6509245  68.6177464  66.7581414  26.4234352
  69.2793898  66.1972082  26.3230261  67.9768876  66.2633444  26.7487043
  68.6206331  66.6017823  26.4566692  59.5054271  70.0551545  18.7315276
  59.9205420  69.7236569  18.0399771  58.6746201  69.8220447  18.6035412
  59.4442280  69.9722801  18.6106123  48.8342620  67.5395286  29.0213454
  48.6518193  67.5142172  28.1685746  49.5692289  68.0094224  29.0602362
  48.9156684  67.6056648  28.9011372  64.9042294  67.7746796  26.1646341
  65.1397884  67.9191995  25.3373192  65.0531858  68.5389204  26.5577855
  64.9608098  67.9085850  26.1009945  51.8988372  64.2580289  35.5295562
  52.6228344  64.2433320  36.0160457  52.0004508  64.9675644  35.0317530
  52.0206581  64.3604992  35.5274349  66.7332751  66.6148462  24.0015945
  67.0640968  67.1476102  23.3956040  67.3065839  66.6687350  24.6577896
  66.8666430  66.7018031  24.0093727  59.2733321  67.7379374  40.3944509
  58.4806302  68.0522885  40.5797129  59.3882248  67.9530842  39.5565294
  59.1728732  67.8163210  40.2982844  61.9464640  64.4613365  24.6839525
  62.0411495  65.2002659  25.1379150  61.3223484  64.0330840  25.1174090
  61.8673670  64.5074685  24.8147673  60.2017114  67.6399577  35.3329806
  60.7755976  67.0026821  35.4878370  60.1231918  67.6403660  34.4639464
  60.2750349  67.5464689  35.2276217  48.8013530  64.4188787  29.1712520
  49.3787033  64.2825238  29.8104765  48.1027592  63.9624571  29.4258104
  48.7834552  64.3311053  29.3034810  62.1987662  66.3062104  17.9176477
  62.1167824  66.3764292  18.7831464  62.8367382  66.8691848  17.7260218
  62.2807499  66.4001076  18.0166427  55.5580833  66.0722842  27.3851003
  55.3000077  65.2394577  27.3582303  55.6129315  66.2980455  26.5443504
  55.5280611  65.9820614  27.2571140  60.6381883  58.1751293  27.4855096
  59.9338210  57.6860479  27.6439015  60.6866857  58.1873768  26.6143540
  60.5411934  58.1040941  27.3794436  54.5315545  63.6260605  27.8715898
  53.9565136  63.7852773  28.5079859  54.1551221  62.9896014  27.4084349
  54.3918357  63.5558418  27.8970456  58.1988833  62.0983954  32.7308277
  57.8103266  61.6738172  32.0760468  57.5343532  62.3466104  33.2385303
  58.0435761  62.0722675  32.7096144  67.8412103  61.8558959  25.5056107
  67.5848667  61.0438900  25.3153989  68.6841417  61.8636526  25.2786294
  67.9278128  61.7370956  25.4440924  44.2772364  63.2700680  25.8860339
  44.3632616  62.8932548  26.6673869  44.9048161  62.8961125  25.4080297
  44.3828915  63.1586162  25.9305816  62.0215195  55.7958583  30.2432261
  62.4025707  55.1136754  30.6300135  61.2178479  55.5068185  30.0607925
  61.9591657  55.6525631  30.2736317  59.3027772  66.3282559  20.9285083
  60.1168411  66.6197452  20.8167855  59.2386913  65.6742421  20.3543376
  59.4130511  66.2747753  20.8273921  65.5237262  69.0108555  35.3414659
  65.2875899  68.1796620  35.2226720  66.1680491  68.9594162  35.9269503
  65.5831933  68.8806243  35.4100553  55.1735680  69.8004076  26.0557396
  55.8109627  69.5615824  26.6009189  55.5990752  70.0041235  25.3210556
  55.3311846  69.7955086  26.0274553  49.8648322  72.0392413  29.9391699
  49.9052468  72.3107264  29.1111479  50.4242846  72.5634321  30.3549487
  49.9531668  72.1568168  29.8783587  55.8138495  65.0206366  20.3932285
  56.1983648  64.8014073  21.1448830  55.5650115  65.8469311  20.5233361
  55.8340568  65.1104512  20.5233361  66.5473683  68.7953004  31.4042954
  66.2419500  69.5281060  31.7656269  65.8279898  68.3890933  31.1235740
  66.3961025  68.8434737  31.4156091  57.5557152  70.2776499  27.7351182
  57.6296160  70.1151671  28.5893032  58.3726658  70.4666688  27.4911663
  57.6873511  70.2813241  27.8249207  72.2475475  65.4346004  30.7311298
  72.1799975  65.4541963  29.8613884  72.2331137  66.2776332  30.9566968
  72.2354231  65.5619739  30.6363775  51.3162909  70.6234362  24.7645625
  50.4901026  70.8696099  24.6379904  51.3774900  70.5446443  25.6307683
  51.2037076  70.6479311  24.8734570  62.6571821  56.8381162  34.0552387
  63.4025413  56.6490972  33.6415813  62.2409126  57.3639400  33.4966244
  62.7056795  56.8883307  33.9116961  56.0961738  73.2411242  22.4664655
  56.3860036  72.8500223  21.7423882  56.8265218  73.4227947  22.9069931
  56.2468622  73.2105056  22.4247462  70.0334092  64.2090391  29.0057892
  70.5842014  63.5758460  29.2454984  70.0178207  64.7405783  29.6973397
  70.1119288  64.1939339  29.1436750  56.6856483  68.0428988  33.5517786
  56.1868176  68.7544756  33.6302674  57.4956707  68.3629654  33.5135948
  56.7312590  68.1955836  33.5574354  54.0367653  75.2178624  25.5324805
  53.8167949  74.9275979  26.3251472  53.8162175  74.5593579  25.0042717
  53.9715247  75.0778333  25.5713714  52.9484600  67.3051941  27.7980507
  52.6597849  66.6789412  28.3326234  53.8167948  67.2472228  27.8645187
  53.0344852  67.2039485  27.8871461  63.7362498  62.4486724  28.1162488
  63.3927264  61.7277059  28.4669738  63.8355541  62.2400575  27.2740847
  63.7004541  62.3110927  28.0434168  56.2035609  76.5908014  24.3155497
  56.8559667  76.0584457  24.5446523  55.5061218  76.2376667  24.7023371
  56.1966327  76.4597537  24.4067665  53.1516874  68.9447192  23.7222872
  53.9062842  69.3260231  23.9358334  52.5587486  69.3958336  24.1769568
  53.1753587  69.0676019  23.8205750  64.1975527  68.9112428  23.6586477
  64.7633560  69.5705638  23.5745020  63.5503431  69.2562126  24.1302879
  64.1854284  69.0594370  23.7159233  55.6123541  60.9010032  38.8480084
  54.8023317  61.2067812  38.7369926  56.0898228  61.6215615  38.9632668
  55.5627020  61.0524633  38.8487155  54.4715100  70.1155753  29.0962987
  53.9495854  70.2556045  29.7814852  54.8589121  69.3566418  29.2865104
  54.4518801  70.0241277  29.2264064  51.4606284  60.1661562  23.1657942
  51.1731080  59.7962832  22.4289889  52.1476753  60.6356417  22.9041647
  51.5195182  60.1808531  23.0173017  60.6682105  71.8551212  23.0823556
  60.4268781  71.1219073  22.6750621  60.8483438  72.4038069  22.4289889
  60.6589729  71.8273604  22.9253779  55.8981426  67.1459772  24.4944478
  55.7024209  67.7534507  23.9004781  56.1215772  66.4527716  24.0136152
  55.9016067  67.1337298  24.3360559  54.2959956  64.0314510  24.6125346
  55.0182608  64.1955668  24.1529152  53.8167949  64.7524175  24.5064686
  54.3323687  64.1612740  24.5290960  62.2553464  60.3678309  29.9922031
  61.4164564  60.3939588  29.7560295  62.3257831  61.0149044  30.5727378
  62.1421857  60.4674435  30.0431148  51.9467573  66.4372583  33.7179486
  52.4588670  66.7156836  33.0688246  51.6603915  67.1761877  34.0842299
  51.9802436  66.5874936  33.6769364  60.7022742  57.2663686  24.7249647
  61.4049095  57.0671434  24.2469606  60.4366931  56.4939628  25.0318491
  60.7669374  57.1226652  24.6995089  66.1310987  65.5746296  27.2783273
  66.0444962  65.7301722  28.1318052  65.6761467  66.2184371  26.9042678
  66.0514244  65.6922051  27.3490380  49.0334479  60.9442774  24.0143223
  49.1350615  61.7468936  24.3424198  49.8290366  60.7430110  23.7166303
  49.1662385  61.0328673  24.0178578  55.4651298  58.5298971  33.7780528
  55.2734495  58.5454106  34.6279951  56.3149894  58.7262645  33.7547183
  55.5627020  58.5613322  33.9003823  49.8498211  61.0589953  31.7564344
  49.7083703  60.2073893  31.8808852  50.1338775  61.1018613  30.9326550
  49.8706057  60.9389703  31.6531968  60.0036804  62.8957043  25.9008833
  59.7571518  62.8152794  26.7345622  60.3321927  62.1110511  25.7071360
  60.0158047  62.7683308  25.9956356  63.8984852  69.6040402  29.6895614
  63.7599212  70.3021448  30.1944356  63.1184850  69.4489059  29.3331796
  63.7628079  69.6840569  29.7121888  62.2362937  65.9036778  35.9417996
  62.2310976  65.0316594  35.9460422  62.9423931  66.1024947  35.4687451
  62.3407941  65.8040652  35.8725031  55.9633831  65.6313761  35.3131816
  56.1077207  66.2114970  34.6774926  56.3109479  66.0090058  36.0181670
  56.0361292  65.7734465  35.3230811  58.1353748  64.8303930  33.0956947
  57.3877062  65.0234944  32.6905225  58.2895273  64.0049149  32.8581069
  58.0476176  64.7369041  33.0002353  55.0361586  73.8216533  32.1792843
  55.1851150  73.2619449  31.5266247  55.8161588  73.9008535  32.5625361
  55.1735679  73.7502099  32.1389792  65.3938225  68.9618656  20.4512113
  65.0145034  68.1755794  20.4441402  64.7304471  69.5105513  20.3083757
  65.2396700  68.9263480  20.4292910  57.5614886  73.9931176  33.4577333
  57.4858558  73.3239987  34.0128122  57.4904746  74.6948964  33.9718000
  57.5395493  73.9976083  33.6154181  58.3755525  58.7254481  33.9852351
  58.8328139  59.4578455  34.1125143  58.4511854  58.3020946  34.7439607
  58.4546495  58.7711719  34.1153428  50.6188516  58.9720300  35.0741795
  50.0830706  58.3600658  35.3902562  50.6806281  59.5468436  35.7275461
  50.5484149  58.9667228  35.2177221  58.2185133  72.5132175  24.2900939
  58.9835024  72.2441819  23.9683604  58.1163223  72.0282185  25.0071002
  58.3166629  72.4021740  24.3480767  56.2537903  60.7156584  30.8294175
  55.4633978  60.5348045  31.1511511  56.6498526  59.9383537  30.8124470
  56.1954779  60.5744045  30.8746723  60.7403794  69.5444359  16.2700889
  61.5076779  69.6044484  15.8606740  60.2935103  68.9724800  15.7857207
  60.7877221  69.4680934  16.1378599  61.6381589  68.3499015  28.5553621
  60.9626591  68.1184247  29.0567008  61.6473965  67.7420198  27.9295726
  61.5400094  68.2257940  28.5369773  58.7675733  63.1916844  35.3117674
  58.7034875  64.0526800  35.1837811  58.9072921  62.8748837  34.5113225
  58.7791203  63.2717010  35.1745887  63.6398324  71.2064147  20.7863799
  63.7218161  72.0131133  20.4625250  64.1248066  71.2260106  21.5104572
  63.7235482  71.3284809  20.8450698  57.4494827  65.8848983  29.4533877
  57.0257076  66.0853482  28.7172895  57.2739682  65.0377831  29.5658177
  57.3605708  65.7897764  29.3607567  56.9506521  77.3999496  31.9155334
  57.4402451  76.7010285  31.7330999  56.3790753  77.1023366  32.5031391
  56.9391051  77.2525720  31.9756375  52.7377272  66.3801034  24.8861849
  52.8941891  66.3147837  25.7417841  53.0777865  67.1549587  24.6740529
  52.8110507  66.4850232  24.9816444  59.2756417  65.7558918  23.7555213
  59.8171962  65.2529299  24.2193833  59.5902976  65.7024113  22.9444698
  59.4020814  65.6738339  23.7039025  63.1473524  69.9661565  40.8682125
  63.9608390  69.6946714  41.0287257  62.9868491  69.6669105  40.0642321
  63.2443473  69.8816491  40.7727531  57.4442867  71.1476269  21.0395241
  57.5135687  70.2890808  21.1788241  58.2231322  71.3648150  20.7114265
  57.5695717  71.0529133  21.0112398  60.4245686  60.6495222  33.8077513
  60.6387656  60.0106137  33.2540867  59.8079585  61.0941046  33.3785375
  60.3651015  60.6205366  33.6627944  61.8350354  73.5713971  25.2531734
  61.4430146  73.2680686  24.5354600  61.9903426  74.4083061  25.0636688
  61.8003944  73.6497807  25.1188231  49.3111534  63.5635985  25.2022617
  49.6910499  63.9820530  24.5382884  48.7366899  64.1449440  25.5091460
  49.2822859  63.7113844  25.1499358  62.5884774  62.2584288  34.7460820
  61.7761456  61.9510178  34.8273993  63.0474709  61.7783288  35.3103532
  62.5365159  62.1420780  34.8415414  61.9990029  70.1363960  25.1937765
  61.6404684  70.3078602  25.9701797  61.5128740  70.5977165  24.6365763
  61.8748726  70.2302931  25.2263034  56.7878394  65.8163125  17.7337999
  57.0770919  66.5928007  18.0081573  56.8750193  65.3051856  18.4352498
  56.8432651  65.8555043  17.8780497  59.6838282  63.6644359  39.5289522
  60.1537913  64.2886475  39.9157397  59.7300162  62.9961335  40.0882737
  59.7606158  63.6579039  39.6689594  63.1594768  71.0267856  36.1404965
  63.7974489  70.5328051  35.8067421  62.5168860  70.9545256  35.5557192
  63.1588995  70.9426864  36.0047320  64.8851768  62.8757001  30.7070881
  64.4579376  62.7883350  29.9518981  64.2477821  62.9834777  31.2925725
  64.7281376  62.8789661  30.6816323  63.2149025  71.7187664  32.7810322
  64.0041403  71.3676729  32.9012404  63.3892623  72.5324052  32.5186956
  63.3569306  71.7873521  32.7598190  52.9542335  65.1296390  29.8338111
  52.1130342  65.0300264  30.0417005  53.1632343  65.8991870  30.1852432
  52.8607028  65.2288433  29.9165426  50.4317902  62.7515926  27.6622862
  50.0374600  62.8258938  26.8872971  49.8758019  63.1373873  28.2131223
  50.2920715  62.8197701  27.6290521  56.7659000  63.0577789  29.0835709
  56.4622138  62.5033777  29.6846116  56.0638421  63.2369999  28.5963743
  56.6175210  63.0022571  29.1005414  55.8225097  60.3678309  23.6480410
  56.0984832  59.6497221  23.2357978  56.4223767  60.9663228  23.4401516
  55.9518362  60.3498679  23.5561172  54.8277351  70.2727509  33.7907806
  54.7197706  70.2829572  34.6569864  55.0373133  71.0982290  33.6012760
  54.8427462  70.3968584  33.8911898  65.3216537  56.2828985  26.8229506
  64.7090850  56.7699387  27.2083238  65.4180712  55.6072476  27.3667157
  65.2454434  56.2547293  26.9608364  59.3235618  58.0391826  21.9227005
  59.7779364  58.2102386  22.6474850  59.7975663  57.4259937  21.5224781
  59.4603938  57.9742711  21.9700767  52.8451143  67.5240152  31.2529744
  52.2539076  68.1649650  31.2232759  53.6072167  67.9477769  31.2261043
  52.8699404  67.6815990  31.2444891  53.2411766  58.6842150  31.9197761
  53.7013247  58.7581079  32.6572885  53.2867873  59.4823404  31.5697583
  53.3162321  58.8136297  31.9770518  54.8895116  59.3508844  36.4869789
  54.4980681  58.7042192  36.9225566  55.0580978  59.9420280  37.1064044
  54.8566026  59.3423112  36.6432495  68.9641565  67.3545922  32.2507022
  69.0224688  67.8032570  32.9966999  68.3308032  67.7644734  31.8137102
  68.8792860  67.4819656  32.2959570  62.6040659  72.9749463  28.6861768
  62.4060348  73.4640278  27.9917980  61.9828370  73.1790705  29.2645902
  62.4828224  73.0766002  28.6684992  56.6648638  64.7434360  23.0272013
  57.4090683  65.1308637  23.2654962  56.8109334  63.8991786  23.1912500
  56.7959223  64.6764833  23.0865982  59.6526514  60.3159834  28.9265932
  59.1786468  59.7901596  29.4371243  60.0244649  59.7689306  28.3580793
  59.6376403  60.1575830  28.9181079  50.0299544  62.3131340  34.2949478
  50.8925157  62.2127049  34.2086808  49.6991327  61.7326050  33.7335050
  50.1084740  62.2122967  34.1994884  65.9163244  65.3762209  30.3372712
  65.6761467  64.5368624  30.3415139  66.3955251  65.4562376  31.0613486
  65.9515428  65.2643609  30.4447515  61.5810013  61.2096388  21.9891686
  61.0533032  61.2925132  21.2997395  62.0405721  61.9514260  21.9856330
  61.5711864  61.3317051  21.8866381  67.9168431  62.1563666  28.2901972
  67.6778201  62.1159501  27.4522756  68.0802332  63.0034818  28.4167693
  67.9058735  62.2755751  28.1855454  64.5214461  66.5413616  34.2207017
  65.2448660  66.0886142  34.0418037  64.2564424  66.8218281  33.4379345
  64.5895735  66.5164584  34.0785732  53.3901330  61.1373789  30.9559896
  52.7654400  61.1492181  30.3485849  53.0546925  61.6133964  31.6051136
  53.2486822  61.2092306  30.9616464  53.5743078  59.4798908  17.0132581
  53.2255883  60.1318633  17.4764130  53.0939524  59.4656021  16.2856452
  53.4513322  59.5741961  16.9743672  50.1027005  69.1974249  32.3963660
  49.5726930  68.5066688  32.4458635  50.3752099  69.1884435  31.5676369
  50.0651728  69.0941381  32.2811076  61.1347096  69.7799952  21.1201343
  61.8581295  70.2458065  20.9765916  60.6947687  69.8473561  20.3698940
  61.1762788  69.8583788  20.9886124  60.3033251  66.6397494  32.3702032
  59.6890244  66.0955544  32.6650667  60.8200536  66.1261730  31.8907848
  60.2888913  66.4833903  32.3426260  59.5429548  67.7101764  30.1046330
  59.1157156  67.0851483  29.6711766  59.5354492  67.4276686  30.9305338
  59.4788689  67.5754545  30.1626158  52.6592075  62.7466937  33.1734764
  52.8185562  61.9910261  33.5786486  52.4784969  63.2957877  33.8275502
  52.6557434  62.7160751  33.3297470  57.8715258  58.5870519  30.3188864
  57.8957745  58.0530631  29.6301644  58.1226731  58.0787827  30.9814455
  57.9125176  58.4331422  30.3153509  45.3822847  65.8702014  29.7532008
  45.2766297  65.8248858  28.8884093  44.6323067  66.2155794  30.0346293
  45.2558450  65.9142922  29.6669338  54.1516580  57.3141337  29.6994609
  54.1914951  57.8150543  30.4129316  53.3266245  57.4051730  29.4300532
  54.0356106  57.4023153  29.7645147  56.3346193  66.8802077  37.8014903
  55.4841823  67.0173791  37.9372548  56.4974320  66.1465855  38.2462605
  56.2330056  66.7916178  37.8870502  55.5730943  63.8301847  31.9968508
  54.7422873  63.9975665  31.7903756  55.5182460  63.4537797  32.7817393
  55.4420358  63.7991578  32.0817036  53.3814727  57.3210740  37.6324918
  54.0067430  56.7772872  37.9054351  52.9265206  56.8405657  37.0632709
  53.4062987  57.1700221  37.5886512  53.9466987  62.1057438  22.5258625
  54.0869948  62.6029902  23.2287267  54.4449520  61.4043733  22.6672839
  54.0408068  62.0759417  22.6510204  53.9767209  62.9724549  19.8551202
  54.6112289  63.5684974  19.7900664  54.0592820  62.6728007  20.6697072
  54.0823760  63.0165457  19.9654289  66.9549775  65.5040027  32.7237566
  67.5467616  66.1437277  32.7555764  67.3908770  64.8063063  33.0129633
  67.1068206  65.4958377  32.7718399  55.5546192  58.9038525  19.8296644
  55.8762033  58.4241607  19.1755907  55.8173136  59.7138171  19.6387456
  55.6412218  58.9528423  19.7052136  58.7843165  69.9257399  33.3495460
  58.2768256  70.4793246  33.7936091  58.4869811  69.9865689  32.5314235
  58.6648050  70.0163710  33.2943917  60.9505347  58.2910719  32.1920123
  61.3760419  57.8383245  31.5803650  60.3362340  57.7370789  32.4684911
  60.9233993  58.1424695  32.1425149  50.4820197  65.1692390  23.1240748
  50.9912427  65.7656897  23.5052054  50.9554470  64.9018364  22.4417168
  50.6263573  65.2178205  23.0795271  61.3950945  73.8420657  21.2799404
  60.6780255  73.6681519  20.8146641  62.0457683  73.6073229  20.7474890
  61.3852796  73.7816449  21.1328622  63.9798917  62.7185245  25.0240709
  63.3090107  63.2614947  24.8953774  64.6738667  63.1880101  24.7822404
  63.9827784  62.8683516  24.9696237  58.0285650  74.8581957  30.2552467
  57.8051305  74.1000786  30.6236494  57.5395494  74.8879978  29.5332907
  57.9229099  74.7504182  30.2029208  64.1427044  59.1741129  27.9331082
  64.4954654  58.7470852  28.6076881  63.2841846  59.0891972  28.0632159
  64.0676489  59.0985869  28.0526093  52.8410729  61.8048649  25.9913929
  52.1222718  62.2212781  26.2586792  53.2123091  62.3702887  25.4405567
  52.7902661  61.9497930  25.9496736  62.1410310  62.4376497  31.8815924
  62.1208237  62.2559793  32.7350703  62.1889511  63.3088516  31.8575508
  62.1444951  62.5393036  32.0039219  60.0856640  69.0263689  37.8064401
  60.0452495  68.3813366  37.2209557  60.8979958  68.9700307  38.1189813
  60.1999793  68.9222656  37.7661350  56.6764107  75.0782415  27.7089552
  56.2624506  74.4156546  27.3193394  57.3611482  75.2260274  27.1885246
  56.7162479  75.0023073  27.5746049  60.0429401  74.2372501  28.4613168
  59.6445685  74.3474771  27.6933989  59.4280621  74.4454567  29.0439728
  59.8928291  74.2846069  28.4344468  58.6157303  60.8446648  21.3287308
  58.0222143  61.1663645  20.7771875  58.6532581  59.9987744  21.1208414
  58.5331693  60.7670977  21.2170079  65.5751104  54.2959541  28.8615395
  65.0681969  53.5888680  28.7936572  66.3718538  53.9652729  28.9916471
  65.6178343  54.1432692  28.8714390  61.4915120  60.8026153  24.7589058
  61.2628813  60.8258854  23.9167417  61.7513196  59.9783620  24.8784069
  61.4961308  60.6842233  24.6514256  55.7734348  62.6560626  34.3614159
  55.2613252  62.0481809  34.7199190  55.6013845  63.3717218  34.8288134
  55.6723986  62.6723925  34.4830382  50.6200063  61.0998201  37.0116520
  50.4502653  61.7599576  36.4664727  50.1766013  61.3104763  37.7329010
  50.5299397  61.2284183  37.0378150  54.5459883  59.3402699  26.0543254
  55.0217249  59.7019779  25.4193435  54.0448482  59.9959167  26.3343397
  54.5425242  59.4896888  26.0019995  67.7771244  68.8124467  21.8456259
  68.1604850  69.5615823  22.0754356  66.9815357  69.0590287  21.5868248
  67.7165026  68.9594161  21.8413833  59.6503419  60.5784871  36.8016414
  60.2074849  60.3498680  36.1694880  59.3264484  61.3390536  36.5251627
  59.6849829  60.6568707  36.6672911  47.5202128  64.0045067  32.2705010
  46.9728847  63.3345712  32.3885879  48.3094506  63.6374915  32.3348477
  47.5554311  63.8510053  32.2973711  57.3686536  63.6652524  37.7668421
  58.1197863  63.9804201  38.0807975  57.5609113  63.4631695  36.9402343
  57.5077950  63.6819906  37.6911817  56.5886536  61.4843899  19.4216638
  56.9685501  61.5023528  18.6367753  55.8479132  61.9297888  19.3007485
  56.5355373  61.5525674  19.2880206  64.2171826  59.7926090  25.0092217
  64.2166053  59.6374747  25.8676493  64.0128006  60.6389077  24.9533602
  64.1871604  59.8946711  25.1280156  46.2789097  63.2165875  29.4251033
  46.1010858  62.7642484  30.1505949  45.9908119  64.0192036  29.6089511
  46.2102050  63.2688432  29.5594536  61.9412678  64.4723592  28.6628424
  62.4366344  63.7546587  28.6232444  61.1312454  64.1694390  28.5482911
  61.8956572  64.3221238  28.6402149  57.3871290  68.3221405  20.8125428
  56.5782613  67.9988079  20.7658738  57.8946199  67.6154627  20.7453677
  57.3420957  68.1702722  20.7955722  48.0161567  65.7493598  26.5372792
  47.1507087  65.7379289  26.4255564  48.1160383  65.5623821  27.3843932
  47.9035734  65.7199660  26.6461737  64.0064497  67.2227280  31.3505552
  64.4319569  66.7001701  30.7975977  63.6421417  67.8208117  30.8294175
  64.0151100  67.2337507  31.1914562  53.6418577  75.5191497  30.1102898
  53.9565136  76.3327885  30.1180680  54.0511990  75.1341716  30.7785057
  53.7486675  75.5820199  30.2106989  60.5943097  70.9361544  27.6806710
  61.0654275  71.6501806  27.8496695  60.9303275  70.3360294  28.2166579
  60.7138212  70.9533008  27.7839086  62.6820081  72.5462857  39.8598782
  62.7917047  71.7571418  40.2155529  63.0110978  72.4568793  39.0573120
  62.7472487  72.4168710  39.7941173  61.2317043  70.7279478  34.4434402
  60.6837989  70.1037362  34.1754468  61.6930072  70.9173750  33.7278482
  61.2184252  70.6638528  34.2984834  64.0410907  58.7964832  31.8285595
  63.4573896  59.2974039  31.4163162  64.3615201  58.2894389  31.1949918
  64.0024083  58.7956667  31.6744102  56.5805706  57.7105427  22.1044270
  57.4021401  57.8803740  21.8625964  56.1175357  57.8652688  21.3810567
  56.6336869  57.7587160  21.9615914  50.9831597  69.4664605  29.7581506
  51.5876454  69.4260440  29.1295327  50.7758910  70.3135757  29.7885562
  51.0420494  69.5852608  29.6697623  60.7975369  71.7330551  30.9743744
  61.6173743  71.5893517  31.2360039  60.5169447  72.3576749  31.5160182
  60.8772113  71.8040903  31.0931683  46.2182879  68.4499223  29.6280429
  46.1207157  67.6395494  29.9370486  47.0011749  68.4291016  29.2426698
  46.3199016  68.3266313  29.6167292  70.4688704  78.4771053  28.6939550
  69.6126600  78.6379552  28.7448667  70.5156358  77.6063117  28.7144611
  70.3487816  78.3721855  28.7045616  59.6279645  84.0472450  26.3491888
  59.3929829  83.2140102  26.2424157  59.7665285  84.3277116  25.5353089
  59.6135307  83.9655953  26.2134243  61.9269732  76.2158181  29.2476196
  61.3074764  75.6250828  29.0786211  61.8253596  76.8069616  28.6140519
  61.8207408  76.2162263  29.1281185  61.6538865  79.7610462  31.4919765
  61.5297562  80.3472908  32.1269584  62.3057150  79.2670658  31.7932040
  61.7312514  79.7749267  31.6305694  67.1964491  73.3250119  27.6629934
  66.8667821  73.7761263  26.9933632  66.5209493  73.2466282  28.2102940
  67.0474928  73.3801254  27.6453157  74.4040899  69.3135642  25.9079544
  74.0894340  70.0039120  26.3399967  73.8867841  69.2580424  25.2065045
  74.2805369  69.4070530  25.8676493  65.4020445  71.3862407  23.1452881
  66.1566413  71.7540724  22.9069932  65.2247980  71.7601962  23.9132061
  65.4874924  71.4960595  23.2237770  65.0920073  79.6789884  36.9048789
  65.2640577  79.5695778  37.7534071  65.6289431  80.3244289  36.6679982
  65.1965077  79.7581885  36.9953886  63.7577510  73.7932726  19.8430994
  63.5753083  74.0104607  19.0171987  64.6203123  73.9071739  19.8989609
  63.8582099  73.8422624  19.7285481  69.4377229  70.7959137  22.8780018
  70.1663390  70.6175092  22.4318174  69.5272122  71.6377217  23.0887196
  69.5583891  70.8943015  22.8433536  59.3981790  82.2721815  31.7401709
  59.1320205  81.4560931  31.8992700  59.4120354  82.3174970  30.8697225
  59.3606512  82.1578719  31.6355191  76.3763184  72.5999629  29.7744143
  77.0189092  72.6697734  30.3606058  76.6286205  71.9328852  29.2723685
  76.5085316  72.5125978  29.7871422  64.1480396  75.8100193  34.3868717
  63.4552193  75.3397173  34.6329449  64.7640724  75.5838497  34.9610424
  64.1364926  75.7067325  34.5077870  59.8075204  83.0580594  29.0213454
  59.6250777  83.0327480  28.1685746  60.5424873  83.5279532  29.0602362
  59.8889268  83.1241956  28.9011372  62.8720955  79.7765597  35.5295562
  63.5960928  79.7618628  36.0160457  62.9737092  80.4860952  35.0317530
  62.9939164  79.8790300  35.5274349  59.7746114  79.9374095  29.1712520
  60.3519617  79.8010545  29.8104765  59.0760176  79.4809879  29.4258104
  59.7567135  79.8496361  29.3034810  66.5313416  81.5908150  27.3851003
  66.2732661  80.7579885  27.3582303  66.5861899  81.8165763  26.5443504
  66.5013194  81.5005922  27.2571140  71.6114466  73.6936601  27.4855096
  70.9070793  73.2045787  27.6439015  71.6599441  73.7059075  26.6143540
  71.5144518  73.6226249  27.3794436  65.5048128  79.1445913  27.8715898
  64.9297720  79.3038081  28.5079859  65.1283805  78.5081322  27.4084349
  65.3650941  79.0743726  27.8970456  69.1721417  77.6169262  32.7308277
  68.7835850  77.1923480  32.0760468  68.5076115  77.8651412  33.2385303
  69.0168345  77.5907983  32.7096144  55.2504947  78.7885988  25.8860339
  55.3365199  78.4117856  26.6673869  55.8780745  78.4146433  25.4080297
  55.3561498  78.6771470  25.9305816  72.9947779  71.3143891  30.2432261
  73.3758290  70.6322062  30.6300135  72.1911063  71.0253493  30.0607925
  72.9324240  71.1710939  30.2736317  66.9539619  73.8198089  40.1094869
  66.6393060  74.5897652  39.8464432  66.6329552  73.2568345  39.5247096
  66.8598538  73.8508358  39.9836219  64.5071516  72.2088611  25.7241065
  63.6393941  72.2811210  25.7898675  64.7946720  73.0110690  25.9129041
  64.4211264  72.3382758  25.7615832  73.6304405  72.3566470  34.0552387
  74.3757997  72.1676280  33.6415813  73.2141709  72.8824708  33.4966244
  73.6789379  72.4068615  33.9116961  63.9217184  82.8237249  27.7980507
  63.6330433  82.1974720  28.3326234  64.7900532  82.7657536  27.8645187
  64.0077436  82.7224793  27.8871461  66.5856124  76.4195340  38.8480084
  65.7755900  76.7253120  38.7369926  67.0630811  77.1400922  38.9632668
  66.5359603  76.5709941  38.8487155  62.4338868  75.6846870  23.1657942
  62.1463664  75.3148140  22.4289889  63.1209336  76.1541725  22.9041647
  62.4927765  75.6993839  23.0173017  65.2692540  79.5499818  24.6125346
  65.9915192  79.7140976  24.1529152  64.7900532  80.2709483  24.5064686
  65.3056270  79.6798048  24.5290960  73.2286047  75.8863617  29.9922031
  72.3897148  75.9124896  29.7560295  73.2990414  76.5334352  30.5727378
  73.1154441  75.9859743  30.0431148  62.9200156  81.9557890  33.7179486
  63.4321253  82.2342144  33.0688246  62.6336499  82.6947185  34.0842299
  62.9535019  82.1060244  33.6769364  71.6755325  72.7848994  24.7249647
  72.3781678  72.5856742  24.2469606  71.4099514  72.0124936  25.0318491
  71.7401958  72.6411960  24.6995089  60.0067063  76.4628082  24.0143223
  60.1083199  77.2654244  24.3424198  60.8022949  76.2615418  23.7166303
  60.1394968  76.5513981  24.0178578  66.4383882  74.0484279  33.7780528
  66.2467079  74.0639414  34.6279951  67.2882478  74.2447953  33.7547183
  66.5359604  74.0798630  33.9003823  60.8230795  76.5775261  31.7564344
  60.6816287  75.7259201  31.8808852  61.1071358  76.6203921  30.9326550
  60.8438641  76.4575011  31.6531968  70.9769387  78.4142351  25.9008833
  70.7304101  78.3338102  26.7345622  71.3054510  77.6295819  25.7071360
  70.9890631  78.2868616  25.9956356  66.9366414  81.1499069  35.3131816
  67.0809790  81.7300277  34.6774926  67.2842063  81.5275366  36.0181670
  67.0093876  81.2919773  35.3230811  69.1086332  80.3489238  33.0956947
  68.3609646  80.5420252  32.6905225  69.2627857  79.5234457  32.8581069
  69.0208759  80.2554349  33.0002353  69.3488109  74.2439788  33.9852351
  69.8060723  74.9763763  34.1125143  69.4244438  73.8206254  34.7439607
  69.4279079  74.2897027  34.1153428  61.5921100  74.4905608  35.0741795
  61.0563289  73.8785966  35.3902562  61.6538865  75.0653744  35.7275461
  61.5216733  74.4852536  35.2177221  73.8215435  67.4229664  27.8546194
  73.9399003  67.8806127  27.1213497  73.6477610  66.6174925  27.5682412
  73.8134606  67.3723436  27.7047128  67.2270487  76.2341892  30.8294175
  66.4366561  76.0533352  31.1511511  67.6231109  75.4568845  30.8124470
  67.1687363  76.0929353  30.8746723  69.7408317  78.7102151  35.3117674
  69.6767458  79.5712108  35.1837811  69.8805505  78.3934145  34.5113225
  69.7523787  78.7902318  35.1745887  63.7109856  81.8986342  24.8861849
  63.8674475  81.8333145  25.7417841  64.0510449  82.6734895  24.6740529
  63.7843091  82.0035540  24.9816444  71.3978270  76.1680530  33.8077513
  71.6120239  75.5291445  33.2540867  70.7812169  76.6126354  33.3785375
  71.3383599  76.1390674  33.6627944  60.2844117  79.0821293  25.2022617
  60.6643082  79.5005838  24.5382884  59.7099482  79.6634748  25.5091460
  60.2555442  79.2299152  25.1499358  70.7892998  69.2780466  28.7964856
  69.9186556  69.2519187  28.7498165  71.0433340  69.1057658  27.9790702
  70.6986559  69.2490610  28.6684993  67.8142139  71.2886694  30.2538326
  67.2980628  70.5966886  30.3789905  67.2536068  71.9557471  30.2000925
  67.6548652  71.2849952  30.2644392  69.8834372  71.8279654  32.0831179
  69.4966126  71.8528686  32.8644709  69.3967310  71.2621333  31.6305695
  69.7546881  71.7475405  32.1319083  69.5491514  68.7146640  34.3741439
  70.1784632  69.2506940  34.0962509  69.7177377  68.6223999  35.2255004
  69.6669309  68.7808002  34.4589967  69.3505429  73.5017835  36.6467850
  70.1778858  73.2302984  36.7026465  69.3713275  74.2978676  37.0031668
  69.4758279  73.5797589  36.7083033  63.9274919  80.6481697  29.8338111
  63.0862925  80.5485572  30.0417005  64.1364927  81.4177178  30.1852432
  63.8339611  80.7473741  29.9165426  61.4050486  78.2701234  27.6622862
  61.0107184  78.3444246  26.8872971  60.8490603  78.6559181  28.2131223
  61.2653298  78.3383009  27.6290521  73.0415433  71.2482528  27.3426741
  73.2465026  71.1804836  28.1883738  72.7141857  72.0541350  27.2747918
  73.0230680  71.3568469  27.4586396  67.7391584  78.5763097  29.0835709
  67.4354721  78.0219085  29.6846116  67.0371004  78.7555307  28.5963743
  67.5907793  78.5207879  29.1005414  66.7957681  75.8863616  23.6480410
  67.0717415  75.1682529  23.2357978  67.3956350  76.4848536  23.4401516
  66.9250945  75.8683987  23.5561172  76.2949120  71.8014293  26.8229506
  75.6823434  72.2884695  27.2083238  76.3913295  71.1257784  27.3667157
  76.2187018  71.7732601  26.9608364  70.2968201  73.5577134  21.9227005
  70.7511948  73.7287694  22.6474850  70.7708247  72.9445245  21.5224781
  70.4336521  73.4928019  21.9700767  63.8183727  83.0425460  31.2529744
  63.2271660  83.6834958  31.2232759  64.5804750  83.4663077  31.2261043
  63.8431987  83.2001298  31.2444891  64.2144349  74.2027458  31.9197761
  64.6745831  74.2766387  32.6572885  64.2600456  75.0008712  31.5697583
  64.2894905  74.3321605  31.9770518  65.8627699  74.8694152  36.4869789
  65.4713264  74.2227500  36.9225566  66.0313562  75.4605588  37.1064044
  65.8298610  74.8608420  36.6432495  69.5560797  72.0569927  28.0603874
  68.7096842  72.2292735  27.9345224  69.5531929  71.2519271  28.3969702
  69.4307947  71.9630956  28.0915001  70.6259097  75.8345141  28.9265932
  70.1519051  75.3086904  29.4371243  70.9977233  75.2874614  28.3580793
  70.6108986  75.6761138  28.9181079  61.0032127  77.8316648  34.2949478
  61.8657740  77.7312357  34.2086808  60.6723910  77.2511357  33.7335050
  61.0817324  77.7308275  34.1994884  64.3633913  76.6559097  30.9559896
  63.7386983  76.6677489  30.3485849  64.0279508  77.1319272  31.6051136
  64.2219405  76.7277614  30.9616464  61.0759589  84.7159557  32.3963660
  60.5459513  84.0251996  32.4458635  61.3484682  84.7069743  31.5676369
  61.0384311  84.6126689  32.2811076  63.6324659  78.2652245  33.1734764
  63.7918145  77.5095569  33.5786486  63.4517552  78.8143185  33.8275502
  63.6290018  78.2346059  33.3297470  71.5744962  70.4313481  33.7285554
  71.0785523  70.6277155  33.0377121  72.3314024  70.8306149  33.5574356
  71.6131786  70.5191214  33.6005691  68.8447841  74.1055826  30.3188864
  68.8690328  73.5715939  29.6301644  69.0959315  73.5973135  30.9814455
  68.8857760  73.9516730  30.3153509  56.3555431  81.3887321  29.7532008
  56.2498880  81.3434166  28.8884093  55.6055651  81.7341102  30.0346293
  56.2291034  81.4328230  29.6669338  65.1249163  72.8326645  29.6994609
  65.1647535  73.3335851  30.4129316  64.2998828  72.9237038  29.4300532
  65.0088689  72.9208461  29.7645147  66.5463527  79.3487155  31.9968508
  65.7155456  79.5160973  31.7903756  66.4915044  78.9723105  32.7817393
  66.4152942  79.3176886  32.0817036  64.3547310  72.8396047  37.6324918
  64.9800013  72.2958180  37.9054351  63.8997790  72.3590965  37.0632709
  64.3795571  72.6885529  37.5886512  64.9199571  77.6242746  22.5258625
  65.0602532  78.1215210  23.2287267  65.4182103  76.9229040  22.6672839
  65.0140652  77.5944725  22.6510204  71.9237931  73.8096026  32.1920123
  72.3493002  73.3568553  31.5803650  71.3094924  73.2556097  32.4684911
  71.8966576  73.6610003  32.1425149  61.4552781  80.6877698  23.1240748
  61.9645010  81.2842205  23.5052054  61.9287053  80.4203672  22.4417168
  61.5996157  80.7363513  23.0795271  70.3632154  70.2811126  25.6010700
  69.7200472  70.1308773  26.1695839  70.0231561  70.0353472  24.8359805
  70.2177231  70.2223249  25.5713716  75.1159628  74.6926437  27.9331082
  75.4687238  74.2656160  28.6076881  74.2574429  74.6077280  28.0632159
  75.0409072  74.6171177  28.0526093  63.8143313  77.3233956  25.9913929
  63.0955302  77.7398089  26.2586792  64.1855675  77.8888195  25.4405567
  63.7635244  77.4683238  25.9496736  76.5483688  69.8144849  28.8615395
  76.0414552  69.1073988  28.7936572  77.3451121  69.4838037  28.9916471
  76.5910927  69.6618000  28.8714390  72.4647704  76.3211461  24.7589058
  72.2361397  76.3444162  23.9167417  72.7245780  75.4968928  24.8784069
  72.4693892  76.2027541  24.6514256  66.7466932  78.1745934  34.3614159
  66.2345835  77.5667117  34.7199190  66.5746428  78.8902526  34.8288134
  66.6456569  78.1909233  34.4830382  61.5932647  76.6183509  37.0116520
  61.4235237  77.2784884  36.4664727  61.1498597  76.8290070  37.7329010
  61.5031980  76.7469491  37.0378150  65.5192466  74.8588007  26.0543254
  65.9949832  75.2205087  25.4193435  65.0181066  75.5144475  26.3343397
  65.5157825  75.0082196  26.0019995  70.6236002  76.0970179  36.8016414
  71.1807433  75.8683988  36.1694880  70.2997067  76.8575844  36.5251627
  70.6582413  76.1754015  36.6672911  58.4934711  79.5230375  32.2705010
  57.9461431  78.8531020  32.3885879  59.2827089  79.1560223  32.3348477
  58.5286895  79.3695361  32.2973711  68.3419120  79.1837832  37.7668421
  69.0930447  79.4989509  38.0807975  68.5341696  78.9817003  36.9402343
  68.4810534  79.2005214  37.6911817  75.1904410  75.3111398  25.0092217
  75.1898636  75.1560055  25.8676493  74.9860590  76.1574385  24.9533602
  75.1604188  75.4132019  25.1280156  57.2521681  78.7351183  29.4251033
  57.0743442  78.2827792  30.1505949  56.9640703  79.5377344  29.6089511
  57.1834634  78.7873740  29.5594536  58.9894151  81.2678906  26.5372792
  58.1239670  81.2564597  26.4255564  59.0892967  81.0809129  27.3843932
  58.8768318  81.2384968  26.6461737  68.4845175  71.2274322  34.6364805
  68.6173081  70.4305316  34.9645780  68.8690328  71.7540725  35.2163080
  68.5601504  71.1874239  34.7708308  71.5577530  68.1504648  31.2345898
  70.7523494  68.0402378  31.5513736  71.4284266  68.2517104  30.3775764
  71.4197663  68.1488318  31.1553938  75.0143491  74.3150140  31.8285595
  74.4306480  74.8159347  31.4163162  75.3347785  73.8079696  31.1949918
  74.9756666  74.3141975  31.6744102  67.5538290  73.2290735  22.1044270
  68.3753984  73.3989048  21.8625964  67.0907941  73.3837996  21.3810567
  67.6069452  73.2772468  21.9615914  66.1433622  71.2233497  32.8842698
  66.6878035  70.8824624  33.4747040  66.1970558  72.0818959  33.0263983
  66.2322741  71.2988757  32.9924572  61.9564181  84.9849913  29.7581506
  62.5609038  84.9445748  29.1295327  61.7491493  85.8321065  29.7885562
  62.0153078  85.1037916  29.6697623  57.1915463  83.9684531  29.6280429
  57.0939741  83.1580802  29.9370486  57.9744333  83.9476324  29.2426698
  57.2931599  83.8451621  29.6167292  29.5802911  -0.3905522  25.2340053
  30.2869678  -0.8853491  25.3626988  29.7690846   0.0503560  24.5042711
  29.7130816  -0.3987171  25.1449099  26.7195205   3.0322015  23.1254129
  26.8078551   2.8448155  23.9732339  27.1484918   2.3859444  22.7258975
  26.7957307   2.9085023  23.1925880  24.2865665   2.3153175  22.1071791
  23.7236500   1.9025785  22.6311452  25.0486688   2.2406081  22.5264934
  24.3160113   2.2430575  22.2464791  26.8315264   2.4631034  25.7897912
  27.6155681   2.5761882  26.1553654  26.6311859   1.6372171  25.9856598
  26.9181290   2.3577753  25.8732298  26.9885658   4.3741136  19.4364368
  26.1900903   4.1340636  19.6938236  27.4371669   4.4255529  20.1831415
  26.9360269   4.3463527  19.5849292  26.0486394  -1.8798419  27.3284556
  25.2559375  -1.5654907  27.5137176  26.1635322  -1.6646951  26.4905341
  25.9481805  -1.8014582  27.2322891  32.2990335  -0.6069238  22.2754706
  32.0628972  -1.4381173  22.1566767  32.9433564  -0.6583631  22.8609550
  32.3585006  -0.7371550  22.3440600  24.3367960   4.3753384  20.3917380
  24.2611631   3.7062194  20.9468168  24.2657819   5.0771172  20.9058046
  24.3148567   4.3798291  20.5494228  23.7259594   7.7821703  18.8495381
  24.2155524   7.0832493  18.6671046  23.1543826   7.4845573  19.4371438
  23.7144124   7.6347927  18.9096422  29.9226597   0.3483773  27.8022172
  30.7361463   0.0768922  27.9627304  29.7621564   0.0491313  26.9982368
  30.0196546   0.2638699  27.7067578  29.9347841   1.4090063  23.0745012
  30.5727562   0.9150259  22.7407468  29.2921933   1.3367463  22.4897239
  29.9342068   1.3249071  22.9387367  29.9902098   2.1009871  19.7150369
  30.7794476   1.7498936  19.8352451  30.1645696   2.9146260  19.4527003
  30.1322380   2.1695728  19.6938237  23.1099266  -2.7375716  24.7354950
  22.2594897  -2.6004002  24.8712595  23.2727394  -3.4711938  25.1802652
  23.0083130  -2.8261615  24.8210549  26.8609713  -0.5914103  24.7404448
  26.8205568  -1.2364426  24.1549604  27.6733031  -0.6477486  25.0529860
  26.9752867  -0.6955136  24.7001397  29.4573154   2.9285065  26.7938829
  29.5670120   2.1393625  27.1495576  29.7864051   2.8391001  25.9913167
  29.5225560   2.7990917  26.7281219  28.0070116   1.1101685  21.3774449
  27.4591062   0.4859569  21.1094515  28.4683145   1.2995957  20.6618529
  27.9937326   1.0460735  21.2324880  44.0442093   9.7717610  10.8726667
  44.0136097  10.6262246  11.0444936  44.6423442   9.4712902  11.4312810
  44.1279251   9.8534106  10.9801469  37.2441778   8.8593261  15.6279597
  36.3879673   9.0201759  15.6788714  37.2909431   7.9885325  15.6484658
  37.1240889   8.7544063  15.6385663  31.6282917  18.3955979  11.3916829
  30.8765817  18.0171517  11.1632874  32.0768929  18.4274412  10.6435639
  31.5832584  18.3441586  11.2474331  40.5535494  15.1279786  25.2340053
  41.2602261  14.6331817  25.3626988  40.7423430  15.5688868  24.5042711
  40.6863400  15.1198137  25.1449099  36.6212169  20.7695617  12.7613487
  37.0051548  21.3382515  12.2218263  36.5571310  20.0445127  12.2819304
  36.6685596  20.7471080  12.6107350  40.0893599  10.9185305  18.2711249
  40.6349559  11.5970391  18.3305219  40.0310475  10.7772766  17.4112830
  40.1609513  10.9977306  18.1523309  33.2067674  18.4074371  13.6579601
  33.3078036  17.5974725  13.9676729  32.6109419  18.3131317  13.0279280
  33.1340212  18.2739399  13.6105840  41.8658667  12.3469912   9.1444977
  41.7498193  13.0977598   9.5737115  42.6614554  12.0893865   9.3941064
  41.9663257  12.4204759   9.2449068  33.0468413  23.3251960  15.0594457
  33.6905869  23.7665124  15.4490616  33.3724669  22.5205386  14.9724716
  33.1900242  23.2717155  15.1039935  33.7488993  16.3363935  10.4314319
  34.0704834  16.8769142   9.8275627  34.3961089  15.7660706  10.5636609
  33.8915048  16.3323110  10.3621354  28.4291938  10.1432670  18.4259812
  28.3050635  10.7295115  19.0609631  29.0810223   9.6492865  18.7272087
  28.5065588  10.1571474  18.5645741  35.9878636  14.7250375  10.5028497
  36.4272272  14.1167475  10.9483270  35.8383299  14.3457748   9.7313962
  36.0300102  14.5788846  10.4547665  33.4550279  13.3194387  17.7047323
  34.0999282  12.8266830  17.3858271  33.6952056  13.4619173  18.5313401
  33.5860864  13.2671829  17.7796856  35.9936371  16.1649292  17.3554215
  36.2759614  15.3700698  17.1340971  36.7222531  16.6429880  17.3759276
  36.1425934  16.1183889  17.3257230  45.9754459  15.2708655  14.3290046
  45.1452162  15.4819298  14.4923463  45.9263711  14.4445709  14.0532330
  45.8461194  15.1798261  14.3127412  27.9650043  19.3080328  14.5588141
  27.4817621  20.0330818  14.5347725  28.7773361  19.6056458  14.6698299
  28.0140790  19.4582682  14.5715420  34.0364197  18.1012509  17.1637956
  33.5191138  17.7419924  16.5599264  34.7338588  17.5774683  17.1744022
  34.0629778  17.9710197  17.0768214  30.8194240  19.8236504  14.7108421
  31.5214819  19.3088493  14.7681178  30.7391723  20.1510655  15.5155296
  30.9118000  19.7950730  14.8381213  45.4708417   7.9179055  18.1240467
  44.6336838   7.9881242  18.3588062  45.4396648   7.9203550  17.2514770
  45.3426700   7.9289282  18.0300015  31.8673146  10.0612091  23.8388836
  32.0393650   9.9517986  24.6874117  32.4042504  10.7066496  23.6020028
  31.9718150  10.1404093  23.9293933  30.1445015  16.0142856  14.2194029
  30.9833915  16.2465789  14.2667791  30.1756784  15.1447167  14.1501064
  30.2726733  15.9199802  14.2158674  30.7697718  16.4343731  18.5207335
  31.3095943  16.2914862  19.1910707  30.0867664  16.8340482  18.8891361
  30.7489872  16.4723402  18.6741756  40.1938603  12.1134732  13.7152359
  40.9496118  12.5466246  13.7541268  40.3000928  11.4639502  14.2886995
  40.3208774  12.0812216  13.8050385  43.2318774  15.9408009  14.4654762
  42.7954006  15.9444751  15.2213733  42.8981690  16.6213508  14.0334339
  43.1181394  16.0420465  14.5135594  26.1734863  12.6544022  18.6741756
  25.9073279  11.8383139  18.8332746  26.1873427  12.6997178  17.8037272
  26.1359586  12.5400927  18.5695238  43.1516257   2.9821837  16.7084190
  43.7942166   3.0519941  17.2946105  43.4039278   2.3151060  16.2063732
  43.2838389   2.8948186  16.7211469  30.9233470   6.1922400  21.3208764
  30.2305266   5.7219380  21.5669495  31.5393797   5.9660705  21.8950471
  30.9118000   6.0889532  21.4417916  46.3663120  12.6588929  13.3574399
  47.0279555  12.0979597  13.2570308  45.7254532  12.1640960  13.6827090
  46.3691988  12.5025338  13.3906739  26.5828277  13.4402801  15.9553500
  26.4003850  13.4149687  15.1025793  27.3177946  13.9101739  15.9942409
  26.6642341  13.5064164  15.8351419  42.6527951  13.6754311  13.0986388
  42.8883540  13.8199510  12.2713239  42.8017515  14.4396719  13.4917902
  42.7093754  13.8093366  13.0349992  29.6474029  10.1587804  22.4635609
  30.3714001  10.1440835  22.9500504  29.7490165  10.8683160  21.9657577
  29.7692238  10.2612507  22.4614396  44.4818408  12.5155977  10.9355992
  44.8126625  13.0483617  10.3296087  45.0551496  12.5694865  11.5917943
  44.6152087  12.6025546  10.9433773  39.6950297  10.3620880  11.6179572
  39.7897151  11.1010174  12.0719197  39.0709141   9.9338355  12.0514136
  39.6159327  10.4082201  11.7487719  37.9502771  13.5407093  22.2669853
  38.5241632  12.9034337  22.4218417  37.8717575  13.5411175  21.3979510
  38.0236006  13.4472204  22.1616264  26.5499187  10.3196302  16.1052567
  27.1272690  10.1832753  16.7444812  25.8513249   9.8632086  16.3598151
  26.5320209  10.2318568  16.2374857  33.3066489  11.9730358  14.3191050
  33.0485734  11.1402093  14.2922350  33.3614972  12.1987971  13.4783551
  33.2766267  11.8828129  14.1911187  32.2801202   9.5268120  14.8055945
  31.7050793   9.6860289  15.4419906  31.9036878   8.8903529  14.3424395
  32.1404014   9.4565933  14.8310503  35.9474490   7.9991469  19.6648323
  35.5588923   7.5745687  19.0100515  35.2829189   8.2473619  20.1725350
  35.7921418   7.9730191  19.6436191  45.5897759   7.7566474  12.4396153
  45.3334324   6.9446416  12.2494036  46.4327073   7.7644041  12.2126341
  45.6763785   7.6378472  12.3780970  39.7700852   1.6966098  17.1772308
  40.1511364   1.0144269  17.5640182  38.9664136   1.4075700  16.9947972
  39.7077314   1.5533147  17.2076363  43.2722919  14.9116070  22.2754706
  43.0361556  14.0804135  22.1566767  43.9166148  14.8601677  22.8609550
  43.3317589  14.7813758  22.3440600  32.9221337  15.7011592  12.9897442
  33.5595284  15.4623339  13.5349236  33.3476408  15.9048750  12.2550603
  33.0797503  15.6962602  12.9614600  27.6133979  17.9399928  16.8731746
  27.6538124  18.2114779  16.0451526  28.1728503  18.4641836  17.2889534
  27.7017325  18.0575683  16.8123634  33.7292692   4.2020296  27.0434916
  33.4146133   4.9719859  26.7804479  33.4082625   3.6390553  26.4587143
  33.6351611   4.2330565  26.9176266  44.2959339  14.6960519  18.3383000
  43.9905156  15.4288576  18.6996316  43.5765555  14.2898448  18.0575786
  44.1446682  14.7442252  18.3496138  35.3042809  16.1784014  14.6691229
  35.3781817  16.0159186  15.5233079  36.1212315  16.3674204  14.4251710
  35.4359167  16.1820757  14.7589254  49.9961131  11.3353520  17.6651345
  49.9285632  11.3549479  16.7953931  49.9816794  12.1783847  17.8907015
  49.9839888  11.4627254  17.5703822  29.0648565  16.5241877  11.6985672
  28.2386683  16.7703614  11.5719951  29.1260557  16.4453958  12.5647730
  28.9522732  16.5486826  11.8074617  40.4057478   2.7388677  20.9892434
  41.1511070   2.5498488  20.5755860  39.9894783   3.2646915  20.4306290
  40.4542452   2.7890823  20.8457007  33.8447394  19.1418757   9.4004702
  34.1345693  18.7507739   8.6763929  34.5750875  19.3235462   9.8409977
  33.9954279  19.1112571   9.3587509  47.7819749  10.1097906  15.9397939
  48.3327670   9.4765975  16.1795031  47.7663864  10.6413299  16.6313443
  47.8604945  10.0946854  16.0776797  34.4342140  13.9436503  20.4857833
  33.9353833  14.6552271  20.5642721  35.2442364  14.2637170  20.4475995
  34.4798246  14.0963352  20.4914401  31.7853310  21.1186140  12.4664852
  31.5653605  20.8283494  13.2591519  31.5647832  20.4601095  11.9382764
  31.7200904  20.9785848  12.5053760  30.6970257  13.2059456  14.7320553
  30.4083506  12.5796927  15.2666281  31.5653605  13.1479744  14.7985234
  30.7830509  13.1047000  14.8211508  41.4848155   8.3494240  15.0502535
  41.1412921   7.6284575  15.4009785  41.5841198   8.1408091  14.2080894
  41.4490198   8.2118443  14.9774215  33.9521266  22.4915530  11.2495544
  34.6045324  21.9591972  11.4786570  33.2546874  22.1384182  11.6363418
  33.9451984  22.3605053  11.3407712  41.9461184  14.8119944  10.5926523
  42.5119217  15.4713153  10.5085066  41.2989088  15.1569642  11.0642926
  41.9339941  14.9601885  10.6499280  33.3609198   6.8017548  25.7820131
  32.5508973   7.1075327  25.6709973  33.8383884   7.5223130  25.8972715
  33.3112676   6.9532149  25.7827202  32.2200757  16.0163269  16.0303034
  31.6981511  16.1563560  16.7154899  32.6074777  15.2573933  16.2205151
  32.2004458  15.9248792  16.1604110  38.4167762  17.7558728  10.0163603
  38.1754438  17.0226588   9.6090668  38.5969095  18.3045585   9.3629936
  38.4075386  17.7281119   9.8593826  40.0039120   6.2685824  16.9262078
  39.1650221   6.2947103  16.6900341  40.0743488   6.9156560  17.5067425
  39.8907514   6.3681950  16.9771195  29.6953229  12.3380098  20.6519533
  30.2074326  12.6164351  20.0028293  29.4089572  13.0769392  21.0182346
  29.7288093  12.4882452  20.6109411  43.8796644  11.4753811  14.2123320
  43.7930619  11.6309237  15.0658099  43.4247124  12.1191887  13.8382725
  43.7999901  11.5929566  14.2830427  33.2136955   4.4306486  20.7120575
  33.0220152   4.4461621  21.5619998  34.0635551   4.6270161  20.6887230
  33.3112677   4.4620838  20.8343869  27.5983868   6.9597468  18.6904391
  27.4569360   6.1081409  18.8148899  27.8824431   7.0026129  17.8666597
  27.6191714   6.8397218  18.5872015  37.7522460   8.7964558  12.8348879
  37.5057175   8.7160309  13.6685668  38.0807583   8.0118026  12.6411407
  37.7643704   8.6690823  12.9296403  41.6470509  15.5047917  16.6235661
  41.5084868  16.2028963  17.1284403  40.8670507  15.3496574  16.2671842
  41.5113736  15.5848084  16.6461935  39.9848594  11.8044293  22.8758042
  39.9796633  10.9324109  22.8800469  40.6909588  12.0032462  22.4027498
  40.0893598  11.7048167  22.8065078  33.7119488  11.5321277  22.2471863
  33.8562863  12.1122485  21.6114973  34.0595136  11.9097573  22.9521717
  33.7846949  11.6741981  22.2570857  35.8839405  10.7311445  20.0296994
  35.1362719  10.9242460  19.6245272  36.0380930   9.9056665  19.7921115
  35.7961833  10.6376557  19.9342400  43.1423882  14.8626171   7.3852160
  42.7630691  14.0763309   7.3781449  42.4790127  15.4113028   7.2423804
  42.9882357  14.8270995   7.3632957  36.1241182   4.6261996  20.9192398
  36.5813796   5.3585970  21.0465190  36.1997511   4.2028461  21.6779654
  36.2032152   4.6719234  21.0493474  28.3674173   4.8727816  22.0081842
  27.8316363   4.2608174  22.3242609  28.4291938   5.4475952  22.6615508
  28.2969806   4.8674743  22.1517268  35.9670790  18.4139690  11.2240986
  36.7320681  18.1449334  10.9023650  35.8648880  17.9289701  11.9411049
  36.0652286  18.3029255  11.2820814  34.0023560   6.6164100  17.7634222
  33.2119635   6.4355560  18.0851558  34.3984183   5.8391052  17.7464516
  33.9440436   6.4751561  17.8086770  39.3867246  14.2506530  15.4893668
  38.7112248  14.0191762  15.9907055  39.3959622  13.6427713  14.8635773
  39.2885751  14.1265455  15.4709820  36.5161390   9.0924359  22.2457721
  36.4520531   9.9534315  22.1177857  36.6558578   8.7756352  21.4453272
  36.5276860   9.1724526  22.1085934  41.3883981  17.1071662   7.7203846
  41.4703818  17.9138648   7.3965297  41.8733723  17.1267622   8.4444619
  41.4721139  17.2292325   7.7790744  35.1980484  11.7856498  16.3873924
  34.7742733  11.9860997  15.6512942  35.0225339  10.9385346  16.4998224
  35.1091365  11.6905280  16.2947614  34.6992177  23.3007011  18.8495381
  35.1888108  22.6017800  18.6671046  34.1276410  23.0030881  19.4371438
  34.6876707  23.1533235  18.9096422  40.8959181  15.8669081  27.8022172
  41.7094046  15.5954229  27.9627304  40.7354147  15.5676621  26.9982368
  40.9929130  15.7824007  27.7067578  38.1731343   6.5502738  20.7417560
  38.3873313   5.9113652  20.1880914  37.5565242   6.9948562  20.3125422
  38.1136672   6.5212881  20.5967991  39.5836011  19.4721486  12.1871781
  39.1915803  19.1688201  11.4694647  39.7389083  20.3090576  11.9976735
  39.5489601  19.5505323  12.0528278  40.3370431   8.1591803  21.6800867
  39.5247113   7.8517693  21.7614040  40.7960366   7.6790803  22.2443579
  40.2850816   8.0428295  21.7755461  39.7475686  16.0371475  12.1277811
  39.3890340  16.2086118  12.9041844  39.2614396  16.4984681  11.5705810
  39.6234383  16.1310446  12.1603080  37.4323939   9.5651874  26.4629569
  37.9023570  10.1893991  26.8497443  37.4785819   8.8968850  27.0222784
  37.5091814   9.5586555  26.6029641  36.6587446   2.2101862  19.0171226
  36.2719199   2.2350893  19.7984756  36.1720383   1.6443541  18.5645742
  36.5299955   2.1297613  19.0659129  42.6337425   8.7764517  17.6410928
  42.2065033   8.6890865  16.8859027  41.9963478   8.8842292  18.2265772
  42.4767032   8.7797177  17.6156369  36.3244587  -0.9031153  21.3081486
  36.9537705  -0.3670853  21.0302556  36.4930450  -0.9953794  22.1595051
  36.4422382  -0.8369790  21.3930014  36.1258502   3.8840042  23.5807897
  36.9531932   3.6125191  23.6366512  36.1466348   4.6800884  23.9371715
  36.2511352   3.9619796  23.6423080  40.9634682  17.6195179  19.7150369
  41.7527060  17.2684244  19.8352451  41.1378279  18.4331568  19.4527003
  41.1054963  17.6881036  19.6938237  30.7027992  11.0303905  16.7678158
  29.8615999  10.9307779  16.9757052  30.9118000  11.7999385  17.1192478
  30.6092685  11.1295948  16.8505473  34.5144657   8.9585304  16.0175755
  34.2107794   8.4041292  16.6186163  33.8124078   9.1377514  15.5303790
  34.3660867   8.9030086  16.0345461  32.5763008  16.1735025  20.7247853
  32.4683363  16.1837087  21.5909911  32.7858789  16.9989805  20.5352807
  32.5913119  16.2976100  20.8251945  43.0702194   2.1836500  13.7569553
  42.4576507   2.6706902  14.1423285  43.1666368   1.5079991  14.3007204
  42.9940091   2.1554809  13.8948411  30.5936800  13.4247667  18.1869791
  30.0024733  14.0657165  18.1572806  31.3557823  13.8485284  18.1601090
  30.6185061  13.5823506  18.1784938  30.9897423   4.5849665  18.8537808
  31.4498904   4.6588594  19.5912932  31.0353529   5.3830919  18.5037630
  31.0647978   4.7143812  18.9110565  32.6380772   5.2516360  23.4209835
  32.2466338   4.6049707  23.8565613  32.8066635   5.8427795  24.0404091
  32.6051683   5.2430628  23.5772541  46.7127221  13.2553437  19.1847069
  46.7710345  13.7040086  19.9307045  46.0793689  13.6652250  18.7477149
  46.6278517  13.3827172  19.2299617  40.3526316  18.8756979  15.6201815
  40.1546005  19.3647793  14.9258026  39.7314027  19.0798220  16.1985949
  40.2313881  18.9773517  15.6025038  37.4012170   6.2167349  15.8605979
  36.9272125   5.6909111  16.3711290  37.7730306   5.6696822  15.2920840
  37.3862059   6.0583346  15.8521126  27.7785201   8.2138856  21.2289525
  28.6410814   8.1134565  21.1426854  27.4476984   7.6333565  20.6675097
  27.8570397   8.1130482  21.1334930  43.6648901  11.2769725  17.2712759
  43.4247124  10.4376140  17.2755186  44.1440908  11.3569891  17.9953533
  43.7001085  11.1651124  17.3787562  45.6654088   8.0571182  15.2242018
  45.4263858   8.0167016  14.3862803  45.8287989   8.9042334  15.3507739
  45.6544391   8.1763267  15.1195500  42.2700118  12.4421131  21.1547064
  42.9934317  11.9893657  20.9758083  42.0050080  12.7225797  20.3719391
  42.3381391  12.4172100  21.0125779  31.1386986   7.0381305  17.8899943
  30.5140057   7.0499697  17.2825895  30.8032581   7.5141480  18.5391183
  30.9972478   7.1099822  17.8956511  27.8512662  15.0981765  19.3303707
  27.3212587  14.4074204  19.3798682  28.1237755  15.0891950  18.5016416
  27.8137384  14.9948897  19.2151123  38.0518908  12.5405009  19.3042079
  37.4375901  11.9963060  19.5990714  38.5686193  12.0269246  18.8247895
  38.0374570  12.3841418  19.2766307  37.2915205  13.6109279  17.0386377
  36.8642813  12.9858998  16.6051813  37.2840149  13.3284201  17.8645384
  37.2274346  13.4762060  17.0966205  30.4077732   8.6474452  20.1074811
  30.5671219   7.8917777  20.5126533  30.2270625   9.1965392  20.7615549
  30.4043091   8.6168266  20.2637517  38.3498035   0.8135688  20.6625601
  37.8538596   1.0099362  19.9717167  39.1067097   1.2128356  20.4914402
  38.3884860   0.9013422  20.5345737  35.6200914   4.4878034  17.2528911
  35.6443402   3.9538146  16.5641691  35.8712388   3.9795343  17.9154502
  35.6610833   4.3338938  17.2493556  34.0831850  12.7809592  24.7354950
  33.2327480  12.9181306  24.8712595  34.2459977  12.0473370  25.1802652
  33.9815713  12.6923693  24.8210549  33.3216600   9.7309362  18.9308555
  32.4908530   9.8983180  18.7243803  33.2668117   9.3545313  19.7157440
  33.1906015   9.6999093  19.0157083  31.1300383   3.2218255  24.5664965
  31.7553087   2.6780388  24.8394398  30.6750863   2.7413172  23.9972756
  31.1548644   3.0707736  24.5226559  44.7035432  11.4047542  19.6577613
  45.2953272  12.0444793  19.6895811  45.1394427  10.7070579  19.9469680
  44.8553863  11.3965892  19.7058446  36.5328822  15.8264914  20.2835507
  36.0253913  16.3800761  20.7276138  36.2355468  15.8873204  19.4654282
  36.4133707  15.9171225  20.2283964  38.6991004   4.1918234  19.1260170
  39.1246076   3.7390760  18.5143697  38.0847997   3.6378305  19.4024958
  38.6719649   4.0432210  19.0765195  39.1436602  19.7428172   8.2139451
  38.4265912  19.5689034   7.7486688  39.7943340  19.5080744   7.6814937
  39.1338453  19.6823964   8.0668669  41.7284573   8.6192761  11.9580756
  41.0575763   9.1622463  11.8293821  42.4224324   9.0887616  11.7162451
  41.7313441   8.7691032  11.9036284  35.7771307  20.7589473  17.1892514
  35.5536962  20.0008302  17.5576540  35.2881150  20.7887494  16.4672954
  35.6714756  20.6511697  17.1369255  41.8912701   5.0748644  14.8671129
  42.2440311   4.6478367  15.5416928  41.0327502   4.9899488  14.9972205
  41.8162146   4.9993385  14.9866139  39.8895967   8.3384013  18.8155971
  39.8693894   8.1567308  19.6690750  39.9375167   9.2096031  18.7915555
  39.8930608   8.4400551  18.9379266  37.8342297  14.9271205  24.7404448
  37.7938151  14.2820882  24.1549604  38.6465615  14.8707822  25.0529860
  37.9485450  14.8230172  24.7001397  34.4249764  20.9789931  14.6429599
  34.0110163  20.3164061  14.2533440  35.1097138  21.1267789  14.1225293
  34.4648136  20.9030589  14.5086096  37.7915058  20.1380016  15.3953215
  37.3931341  20.2482286  14.6274036  37.1766278  20.3462082  15.9779775
  37.6413948  20.1853584  15.3684515  43.3236761   0.1967056  15.7955441
  42.8167626  -0.5103804  15.7276619  44.1204195  -0.1339755  15.9256518
  43.3664000   0.0440207  15.8054436  33.5220005   8.5568141  21.2954205
  33.0098908   7.9489324  21.6539237  33.3499501   9.2724734  21.7628181
  33.4209642   8.5731441  21.4170429  28.3685720   7.0005717  23.9456567
  28.1988310   7.6607091  23.4004774  27.9251670   7.2112278  24.6669056
  28.2785054   7.1291699  23.9718197  45.5256901  14.7131983   8.7796306
  45.9090507  15.4623339   9.0094403  44.7301014  14.9597802   8.5208295
  45.4650683  14.8601676   8.7753879  37.3989076   6.4792386  23.7356461
  37.9560506   6.2506195  23.1034926  37.0750141   7.2398052  23.4591673
  37.4335486   6.5576223  23.6012958  25.2687784   9.9052582  19.2045057
  24.7214504   9.2353228  19.3225925  26.0580163   9.5382430  19.2688524
  25.3039968   9.7517569  19.2313758  35.1172193   9.5660039  24.7008468
  35.8683520   9.8811716  25.0148022  35.3094769   9.3639210  23.8742390
  35.2563607   9.5827421  24.6251864  39.6898335  10.3731107  15.5968470
  40.1852000   9.6554102  15.5572491  38.8798111  10.0701905  15.4822957
  39.6442228  10.2228754  15.5742196  41.7550154  13.1234795  18.2845599
  42.1805225  12.6009217  17.7316024  41.3907074  13.7215632  17.7634222
  41.7636757  13.1345022  18.1254609  31.3904234  21.4199012  17.0442945
  31.7050793  22.2335401  17.0520726  31.7997647  21.0349231  17.7125104
  31.4972332  21.4827715  17.1447036  38.3428753  16.8369059  14.6146757
  38.8139932  17.5509322  14.7836742  38.6788932  16.2367809  15.1506626
  38.4623868  16.8540523  14.7179133  35.2598248   1.6096530  21.5704851
  35.3926154   0.8127523  21.8985827  35.6443401   2.1362933  22.1503127
  35.3354577   1.5696446  21.7048354  38.9802700  16.6286993  21.3774449
  38.4323646  16.0044877  21.1094515  39.4415728  16.8181265  20.6618529
  38.9669909  16.5646043  21.2324880  41.7896564   4.6972348  18.7625642
  41.2059553   5.1981554  18.3503209  42.1100858   4.1901904  18.1289965
  41.7509739   4.6964183  18.6084149  32.9186695   1.6055705  19.8182745
  33.4631108   1.2646832  20.4087087  32.9723631   2.4641166  19.9604030
  33.0075815   1.6810964  19.9264619  28.7317254  15.3672121  16.6921553
  29.3362111  15.3267955  16.0635374  28.5244566  16.2143273  16.7225609
  28.7906151  15.4860123  16.6037670  38.5461026  17.6338066  17.9083790
  39.3659400  17.4901032  18.1700086  38.2655104  18.2584265  18.4500228
  38.6257769  17.7048418  18.0271730  23.9668536  14.3506738  16.5620476
  23.8692814  13.5403010  16.8710533  24.7497406  14.3298532  16.1766744
  24.0684673  14.2273828  16.5507339  55.0174676  25.2902918  10.8726667
  54.9868681  26.1447554  11.0444936  55.6156025  24.9898210  11.4312810
  55.1011834  25.3719414  10.9801469  48.2174361  24.3778569  15.6279597
  47.3612257  24.5387067  15.6788714  48.2642015  23.5070633  15.6484658
  48.0973473  24.2729371  15.6385663  42.6015501  33.9141287  11.3916829
  41.8498400  33.5356825  11.1632874  43.0501513  33.9459720  10.6435639
  42.5565168  33.8626894  11.2474331  48.0540461  34.3366656   6.8202376
  47.7191829  35.0143578   6.3846598  48.5667331  33.9471967   6.2319248
  48.0806042  34.3791234   6.6689167  47.5944752  36.2880925  12.7613487
  47.9784131  36.8567823  12.2218263  47.5303893  35.5630435  12.2819304
  47.6418179  36.2656388  12.6107350  44.1800257  33.9259679  13.6579601
  44.2810620  33.1160033  13.9676729  43.5842002  33.8316625  13.0279280
  44.1072796  33.7924707  13.6105840  52.8391251  27.8655220   9.1444977
  52.7230777  28.6162906   9.5737115  53.6347138  27.6079173   9.3941064
  52.9395840  27.9390067   9.2449068  44.0200997  38.8437268  15.0594457
  44.6638452  39.2850432  15.4490616  44.3457252  38.0390694  14.9724716
  44.1632825  38.7902463  15.1039935  37.3765301  29.9479965  13.2831935
  37.1415486  29.1147618  13.1764204  37.5150942  30.2284631  12.4693136
  37.3620964  29.8663469  13.1474290  39.6755389  22.1165696  16.1816243
  39.0560420  21.5258343  16.0126257  39.5739252  22.7077131  15.5480566
  39.5693064  22.1169778  16.0621232  44.7221576  31.8549243  10.4314319
  45.0437417  32.3954450   9.8275627  45.3693673  31.2846014  10.5636609
  44.8647632  31.8508418  10.3621354  46.7723284  23.8565238  10.5148706
  47.4703449  24.0353365  11.0070169  47.0875617  23.3335577   9.8919095
  46.9218622  23.8059010  10.4950716  39.4024522  25.6617978  18.4259812
  39.2783219  26.2480423  19.0609631  40.0542806  25.1678173  18.7272087
  39.4798171  25.6756782  18.5645741  46.9611220  30.2435683  10.5028497
  47.4004855  29.6352783  10.9483270  46.8115883  29.8643056   9.7313962
  47.0032686  30.0974154  10.4547665  44.4282863  28.8379695  17.7047323
  45.0731865  28.3452138  17.3858271  44.6684640  28.9804481  18.5313401
  44.5593448  28.7857137  17.7796856  46.9668954  31.6834600  17.3554215
  47.2492197  30.8886006  17.1340971  47.6955115  32.1615188  17.3759276
  47.1158518  31.6369197  17.3257230  44.9450148  19.2257634  14.5969980
  44.6153478  19.6768778  13.9273679  44.2695150  19.1473798  15.1442987
  44.7960584  19.2808769  14.5793204  50.5620556  28.5962864   7.4559266
  50.4771852  29.4523831   7.6008835  51.0504940  28.3207188   8.1241426
  50.6209454  28.6820185   7.5761348  52.1526556  15.2143157  12.8419591
  51.8379997  15.9046636  13.2740013  51.6353498  15.1587939  12.1405092
  52.0291026  15.3078046  12.8016540  51.4938990  25.2147658   8.9557002
  50.9650461  25.4307292   9.6154308  52.0164010  25.9083797   8.8757971
  51.4927443  25.3490795   9.0412601  56.9487043  30.7893963  14.3290046
  56.1184746  31.0004606  14.4923463  56.8996295  29.9631017  14.0532330
  56.8193778  30.6983569  14.3127412  43.3838597  29.1110875   7.7564470
  42.7995813  29.6160906   8.1630333  42.9808693  28.8853262   7.0161062
  43.2377901  29.1519123   7.7069495  38.9382626  34.8265636  14.5588141
  38.4550204  35.5516126  14.5347725  39.7505944  35.1241766  14.6698299
  38.9873374  34.9767990  14.5715420  45.0096780  33.6197817  17.1637956
  44.4923722  33.2605232  16.5599264  45.7071171  33.0959991  17.1744022
  45.0362361  33.4895505  17.0768214  47.8415812  25.3576527   6.2333390
  48.0811816  25.5654511   5.4208733  48.1631653  24.5534036   6.3422335
  47.9252970  25.2690628   6.1293943  43.1506102  17.2869923  10.0792928
  43.9052070  17.6548240   9.8409978  42.9733637  17.6609477  10.8472108
  43.2360581  17.3968111  10.1577817  41.7926823  35.3421812  14.7108421
  42.4947403  34.8273801  14.7681178  41.7124306  35.6695963  15.5155296
  41.8850584  35.3136038  14.8381213  56.4441001  23.4364363  18.1240467
  55.6069422  23.5066550  18.3588062  56.4129232  23.4388858  17.2514770
  56.3159283  23.4474590  18.0300015  41.5063167  19.6940242   6.7771041
  41.3238740  19.9112123   5.9512034  42.3688780  19.8079254   6.8329656
  41.6067756  19.7430140   6.6625528  41.1177599  31.5328164  14.2194029
  41.9566498  31.7651097  14.2667791  41.1489368  30.6632475  14.1501064
  41.2459316  31.4385110  14.2158674  41.7430302  31.9529039  18.5207335
  42.2828527  31.8100170  19.1910707  41.0600248  32.3525790  18.8891361
  41.7222456  31.9908710  18.6741756  47.1862886  16.6966652   9.8120065
  47.9149046  16.5182607   9.3658221  47.2757779  17.5384732  10.0227243
  47.3069548  16.7950531   9.7773583  51.1671187  27.6320040  13.7152359
  51.9228702  28.0651554  13.7541268  51.2733511  26.9824809  14.2886995
  51.2941357  27.5997524  13.8050385  54.2051358  31.4593317  14.4654762
  53.7686590  31.4630059  15.2213733  53.8714273  32.1398816  14.0334339
  54.0913978  31.5605773  14.5135594  37.1467447  28.1729330  18.6741756
  36.8805862  27.3568447  18.8332746  37.1606011  28.2182485  17.8037272
  37.1092169  28.0586235  18.5695238  54.1248841  18.5007145  16.7084190
  54.7674749  18.5705249  17.2946105  54.3771861  17.8336368  16.2063732
  54.2570973  18.4133493  16.7211469  41.0525194  22.9714414   5.2893514
  40.3383371  22.6852594   5.7015947  41.5369163  23.3111040   5.9299902
  41.0184557  22.9796064   5.4449149  57.3395704  28.1774237  13.3574399
  58.0012138  27.6164905  13.2570308  56.6987116  27.6826268  13.6827090
  57.3424572  28.0210646  13.3906739  48.2272512  31.4744368   5.6655322
  48.6423660  31.1429392   4.9739818  47.3964441  31.2413271   5.5375459
  48.1660520  31.3915624   5.5446170  37.5560861  28.9588109  15.9553500
  37.3736434  28.9334995  15.1025793  38.2910529  29.4287047  15.9942409
  37.6374924  29.0249472  15.8351419  53.6260535  29.1939619  13.0986388
  53.8616124  29.3384818  12.2713239  53.7750098  29.9582027  13.4917902
  53.6826338  29.3278674  13.0349992  55.4550991  28.0341285  10.9355992
  55.7859209  28.5668925  10.3296087  56.0284080  28.0880173  11.5917943
  55.5884671  28.1210854  10.9433773  50.6682881  25.8806188  11.6179572
  50.7629735  26.6195482  12.0719197  50.0441724  25.4523663  12.0514136
  50.5891911  25.9267509  11.7487719  37.5231771  25.8381610  16.1052567
  38.1005273  25.7018061  16.7444812  36.8245833  25.3817394  16.3598151
  37.5052792  25.7503876  16.2374857  50.9205902  27.7254928   4.8516524
  50.8386064  27.7957115   5.7171511  51.5585622  28.2884672   4.6600264
  51.0025739  27.8193899   4.9506473  44.2799073  27.4915666  14.3191050
  44.0218317  26.6587401  14.2922350  44.3347556  27.7173279  13.4783551
  44.2498851  27.4013437  14.1911187  49.3600123  19.5944116  14.4195143
  48.6556450  19.1053302  14.5779062  49.4085097  19.6066591  13.5483587
  49.2630175  19.5233764  14.3134483  43.2533785  25.0453428  14.8055945
  42.6783376  25.2045597  15.4419906  42.8769461  24.4088837  14.3424395
  43.1136598  24.9751241  14.8310503  56.5630343  23.2751782  12.4396153
  56.3066908  22.4631724  12.2494036  57.4059657  23.2829349  12.2126341
  56.6496368  23.1563780  12.3780970  32.9990604  24.6893503  12.8200386
  33.0850856  24.3125371  13.6013915  33.6266402  24.3153949  12.3420344
  33.1047155  24.5778985  12.8645863  50.7433435  17.2151406  17.1772308
  51.1243947  16.5329577  17.5640182  49.9396720  16.9261008  16.9947972
  50.6809897  17.0718455  17.2076363  48.0246012  27.7475382   7.8625130
  48.8386651  28.0390275   7.7507902  47.9605153  27.0935244   7.2883423
  48.1348751  27.6940577   7.7613968  43.8953920  31.2196899  12.9897442
  44.5327867  30.9808647  13.5349236  44.3208992  31.4234058  12.2550603
  44.0530087  31.2147910  12.9614600  38.5866563  33.4585236  16.8731746
  38.6270708  33.7300087  16.0451526  39.1461087  33.9827144  17.2889534
  38.6749909  33.5760991  16.8123634  44.5356735  26.4399189   7.3272332
  44.9201888  26.2206896   8.0788877  44.2868356  27.2662135   7.4573408
  44.5558808  26.5297335   7.4573408  55.2691923  30.2145827  18.3383000
  54.9637740  30.9473884  18.6996316  54.5498139  29.8083756  18.0575786
  55.1179265  30.2627560  18.3496138  46.2775392  31.6969322  14.6691229
  46.3514401  31.5344494  15.5233079  47.0944899  31.8859512  14.4251710
  46.4091751  31.7006064  14.7589254  60.9693715  26.8538828  17.6651345
  60.9018215  26.8734787  16.7953931  60.9549377  27.6969155  17.8907015
  60.9572471  26.9812562  17.5703822  40.0381149  32.0427185  11.6985672
  39.2119267  32.2888922  11.5719951  40.0993140  31.9639266  12.5647730
  39.9255316  32.0672134  11.8074617  42.2557173  18.1096126  12.6581112
  41.3879598  18.1818725  12.7238722  42.5432377  18.9118205  12.8469087
  42.1696921  18.2390273  12.6955879  44.8179978  34.6604065   9.4004702
  45.1078276  34.2693046   8.6763929  45.5483459  34.8420770   9.8409977
  44.9686862  34.6297879   9.3587509  58.7552332  25.6283214  15.9397939
  59.3060254  24.9951283  16.1795031  58.7396448  26.1598607  16.6313443
  58.8337529  25.6132162  16.0776797  42.7585894  36.6371448  12.4664852
  42.5386189  36.3468802  13.2591519  42.5380416  35.9786403  11.9382764
  42.6933488  36.4971156  12.5053760  41.6702841  28.7244764  14.7320553
  41.3816089  28.0982235  15.2666281  42.5386189  28.6665051  14.7985234
  41.7563093  28.6232308  14.8211508  52.4580739  23.8679547  15.0502535
  52.1145504  23.1469883  15.4009785  52.5573781  23.6593399  14.2080894
  52.4222781  23.7303751  14.9774215  44.9253849  38.0100837  11.2495544
  45.5777907  37.4777280  11.4786570  44.2279458  37.6569490  11.6363418
  44.9184567  37.8790360  11.3407712  41.8735114  30.3640015  10.6562918
  42.6281082  30.7453054  10.8698381  41.2805727  30.8151159  11.1109615
  41.8971828  30.4868842  10.7545797  52.9193768  30.3305252  10.5926523
  53.4851800  30.9898461  10.5085066  52.2721671  30.6754950  11.0642926
  52.9072524  30.4787193  10.6499280  40.1824525  21.5854385  10.0997989
  39.8949321  21.2155656   9.3629936  40.8694993  22.0549241   9.8381693
  40.2413422  21.6001355   9.9513064  49.3900346  33.2744036  10.0163603
  49.1487022  32.5411896   9.6090668  49.5701679  33.8230893   9.3629936
  49.3807970  33.2466427   9.8593826  44.6199666  28.5652596  11.4284525
  44.4242449  29.1727330  10.8344828  44.8434012  27.8720540  10.9476199
  44.6234307  28.5530121  11.2700606  43.0178196  25.4507333  11.5465393
  43.7400848  25.6148492  11.0869199  42.5386189  26.1716998  11.4404733
  43.0541927  25.5805563  11.4631007  50.9771704  21.7871132  16.9262078
  50.1382805  21.8132411  16.6900341  51.0476071  22.4341868  17.5067425
  50.8640097  21.8867258  16.9771195  49.4240982  18.6856509  11.6589694
  50.1267335  18.4864258  11.1809652  49.1585171  17.9132452  11.9658538
  49.4887615  18.5419475  11.6335136  54.8529228  26.9939119  14.2123320
  54.7663202  27.1494545  15.0658099  54.3979708  27.6377195  13.8382725
  54.7732484  27.1114874  14.2830427  37.7552719  22.3635598  10.9483270
  37.8568856  23.1661759  11.2764245  38.5508606  22.1622934  10.6506350
  37.8880625  22.4521496  10.9518625  48.7255044  24.3149866  12.8348879
  48.4789758  24.2345617  13.6685668  49.0540167  23.5303334  12.6411407
  48.7376287  24.1876131  12.9296403  52.6203093  31.0233225  16.6235661
  52.4817452  31.7214271  17.1284403  51.8403091  30.8681882  16.2671842
  52.4846320  31.1033392  16.6461935  54.1156466  30.3811479   7.3852160
  53.7363274  29.5948617   7.3781449  53.4522711  30.9298336   7.2423804
  53.9614940  30.3456303   7.3632957  51.5701091  13.3237179  14.7886241
  51.6884660  13.7813642  14.0553543  51.3963267  12.5182440  14.5022458
  51.5620262  13.2730951  14.6387174  46.9403374  33.9324998  11.2240986
  47.7053265  33.6634642  10.9023650  46.8381464  33.4475009  11.9411049
  47.0384869  33.8214563  11.2820814  44.9756143  22.1349408  17.7634222
  44.1852218  21.9540868  18.0851558  45.3716766  21.3576360  17.7464516
  44.9173020  21.9936869  17.8086770  49.4622034  30.9637182   3.2040935
  50.2295019  31.0237307   2.7946787  49.0153343  30.3917623   2.7197254
  49.5095461  30.8873758   3.0718646  50.3599830  29.7691838  15.4893668
  49.6844832  29.5377070  15.9907055  50.3692206  29.1613021  14.8635773
  50.2618334  29.6450763  15.4709820  52.3616564  32.6256970   7.7203846
  52.4436402  33.4323956   7.3965297  52.8466307  32.6452929   8.4444619
  52.4453722  32.7477633   7.7790744  41.4595513  27.7993858  11.8201896
  41.6160132  27.7340660  12.6757888  41.7996106  28.5742410  11.6080576
  41.5328747  27.9043056  11.9156490  47.9974657  27.1751741  10.6895259
  48.5390203  26.6722122  11.1533880  48.3121216  27.1216936   9.8784745
  48.1239054  27.0931162  10.6379072  46.1661107  32.5669093   7.9735287
  46.2353927  31.7083631   8.1128288  46.9449562  32.7840974   7.6454312
  46.2913957  32.4721957   7.9452445  50.5568594  34.9906794  12.1871781
  50.1648386  34.6873509  11.4694647  50.7121667  35.8275884  11.9976735
  50.5222184  35.0690631  12.0528278  38.0329774  24.9828808  12.1362663
  38.4128739  25.4013353  11.4722931  37.4585139  25.5642264  12.4431507
  38.0041099  25.1306667  12.0839404  50.7208269  31.5556783  12.1277811
  50.3622924  31.7271426  12.9041844  50.2346980  32.0169988  11.5705810
  50.5966966  31.6495754  12.1603080  48.5378655  15.1787981  15.7304903
  47.6672213  15.1526702  15.6838212  48.7918996  15.0065174  14.9130748
  48.4472215  15.1498125  15.6025039  45.5096635  27.2355948   4.6678046
  45.7989159  28.0120831   4.9421620  45.5968433  26.7244680   5.3692545
  45.5650891  27.2747867   4.8120544  45.5627796  17.1894210  17.1878373
  45.0466284  16.4974401  17.3129952  45.0021725  17.8564987  17.1340972
  45.4034309  17.1857467  17.1984439  47.6320029  17.7287170  19.0171226
  47.2451782  17.7536201  19.7984756  47.1452966  17.1628848  18.5645742
  47.5032538  17.6482921  19.0659129  53.6070009  24.2949825  17.6410928
  53.1797617  24.2076173  16.8859027  52.9696062  24.4027600  18.2265772
  53.4499616  24.2982485  17.6156369  47.2977171  14.6154155  21.3081486
  47.9270289  15.1514455  21.0302556  47.4663034  14.5231514  22.1595051
  47.4154965  14.6815518  21.3930014  41.6760576  26.5489213  16.7678158
  40.8348582  26.4493087  16.9757052  41.8850584  27.3184693  17.1192478
  41.5825268  26.6481256  16.8505473  39.1536143  24.1708750  14.5962908
  38.7592840  24.2451762  13.8213018  38.5976259  24.5566696  15.1471270
  39.0138955  24.2390524  14.5630568  50.7901089  17.1490044  14.2766787
  50.9950683  17.0812352  15.1223785  50.4627513  17.9548865  14.2087965
  50.7716337  17.2575984  14.3926442  45.4877240  24.4770612  16.0175755
  45.1840378  23.9226600  16.6186163  44.7856661  24.6562822  15.5303790
  45.3393450  24.4215394  16.0345461  44.5443338  21.7871132  10.5820457
  44.8203072  21.0690044  10.1698025  45.1442007  22.3856052  10.3741563
  44.6736602  21.7691503  10.4901218  54.0434777  17.7021808  13.7569553
  53.4309091  18.1892210  14.1423285  54.1398952  17.0265299  14.3007204
  53.9672675  17.6740117  13.8948411  48.0453858  19.4584649   8.8567052
  48.4997605  19.6295210   9.5814897  48.5193904  18.8452760   8.4564828
  48.1822178  19.3935534   8.9040814  41.5669383  28.9432975  18.1869791
  40.9757317  29.5842473  18.1572806  42.3290407  29.3670592  18.1601090
  41.5917644  29.1008814  18.1784938  57.6859805  28.7738745  19.1847069
  57.7442929  29.2225394  19.9307045  57.0526273  29.1837558  18.7477149
  57.6011100  28.9012479  19.2299617  51.3258900  34.3942287  15.6201815
  51.1278588  34.8833101  14.9258026  50.7046611  34.5983528  16.1985949
  51.2046464  34.4958825  15.6025038  45.3866878  26.1627184   9.9612059
  46.1308923  26.5501460  10.1995009  45.5327574  25.3184609  10.1252547
  45.5177463  26.0957656  10.0206029  47.3046454  17.9577442  14.9943921
  46.4582499  18.1300250  14.8685271  47.3017586  17.1526786  15.3309749
  47.1793603  17.8638471  15.0255048  54.6381485  26.7955033  17.2712759
  54.3979707  25.9561448  17.2755186  55.1173492  26.8755199  17.9953533
  54.6733668  26.6836432  17.3787562  50.3028254  22.6289211   8.9231733
  49.7751272  22.7117955   8.2337441  50.7623962  23.3707083   8.9196377
  50.2930104  22.7509874   8.8206428  56.6386672  23.5756490  15.2242018
  56.3996442  23.5352324  14.3862803  56.8020573  24.4227642  15.3507739
  56.6276975  23.6948575  15.1195500  42.1119570  22.5566613  17.8899943
  41.4872640  22.5685005  17.2825895  41.7765165  23.0326788  18.5391183
  41.9705062  22.6285130  17.8956511  49.8565336  31.1992775   8.0541390
  50.5799535  31.6650888   7.9105963  49.4165927  31.2666385   7.3038987
  49.8981028  31.2776612   7.9226171  49.3230618  16.3320996  20.6625601
  48.8271180  16.5284670  19.9717167  50.0799680  16.7313664  20.4914402
  49.3617443  16.4198730  20.5345737  46.5933498  20.0063342  17.2528911
  46.6175985  19.4723454  16.5641691  46.8444972  19.4980651  17.9154502
  46.6343417  19.8524246  17.2493556  34.1041088  27.2894837  16.6872055
  33.9984537  27.2441681  15.8224139  33.3541308  27.6348617  16.9686340
  33.9776691  27.3335745  16.6009385  42.8734820  18.7334160  16.6334656
  42.9133192  19.2343367  17.3469363  42.0484485  18.8244554  16.3640579
  42.7574346  18.8215976  16.6985194  44.2949184  25.2494670  18.9308555
  43.4641113  25.4168488  18.7243803  44.2400701  24.8730621  19.7157440
  44.1638599  25.2184401  19.0157083  42.6685227  23.5250261   9.4598672
  42.8088189  24.0222726  10.1627314  43.1667760  22.8236556   9.6012886
  42.7626308  23.4952240   9.5850251  42.6985450  24.3917372   6.7891249
  43.3330529  24.9877797   6.7240711  42.7811061  24.0920830   7.6037119
  42.8042001  24.4358281   6.8994336  55.6768016  26.9232850  19.6577613
  56.2685856  27.5630101  19.6895811  56.1127010  26.2255887  19.9469680
  55.8286447  26.9151200  19.7058446  44.2764433  20.3231348   6.7636691
  44.5980274  19.8434430   6.1095953  44.5391376  21.1330994   6.5727503
  44.3630458  20.3721246   6.6392183  49.6723588  19.7103542  19.1260170
  50.0978659  19.2576068  18.5143697  49.0580581  19.1563613  19.4024958
  49.6452233  19.5617518  19.0765195  39.2038438  26.5885213  10.0580795
  39.7130667  27.1849721  10.4392101  39.6772710  26.3211187   9.3757215
  39.3481813  26.6371029  10.0135318  50.1169186  35.2613480   8.2139451
  49.3998496  35.0874342   7.7486688  50.7675923  35.0266052   7.6814937
  50.1071036  35.2009272   8.0668669  48.1117811  16.1818642  12.5350747
  47.4686128  16.0316288  13.1035886  47.7717218  15.9360987  11.7699852
  47.9662888  16.1230764  12.5053762  52.7017157  24.1378068  11.9580756
  52.0308347  24.6807771  11.8293821  53.3956907  24.6072924  11.7162451
  52.7046025  24.2876340  11.9036284  46.7503891  36.2774780  17.1892514
  46.5269545  35.5193610  17.5576540  46.2613734  36.3072802  16.4672954
  46.6447340  36.1697005  17.1369255  52.8645284  20.5933952  14.8671129
  53.2172895  20.1663675  15.5416928  52.0060086  20.5084796  14.9972205
  52.7894729  20.5178693  14.9866139  41.5628969  23.2241472  12.9253976
  40.8440959  23.6405604  13.1926839  41.9341332  23.7895711  12.3745614
  41.5120901  23.3690753  12.8836783  50.8628550  23.8569321  18.8155971
  50.8426478  23.6752616  19.6690750  50.9107751  24.7281339  18.7915555
  50.8663191  23.9585859  18.9379266  45.3982348  36.4975239  14.6429599
  44.9842746  35.8349369  14.2533440  46.0829722  36.6453097  14.1225293
  45.4380719  36.4215897  14.5086096  48.7647642  35.6565324  15.3953215
  48.3663925  35.7667594  14.6274036  48.1498861  35.8647390  15.9779775
  48.6146531  35.7038892  15.3684515  47.3375544  22.2639472   8.2627355
  46.7440383  22.5856468   7.7111922  47.3750822  21.4180567   8.0548461
  47.2549933  22.1863800   8.1510126  54.2969345  15.7152364  15.7955441
  53.7900209  15.0081503  15.7276619  55.0936778  15.3845553  15.9256518
  54.3396584  15.5625515  15.8054436  50.2133360  22.2218976  11.6929105
  49.9847053  22.2451678  10.8507463  50.4731437  21.3976443  11.8124116
  50.2179548  22.1035056  11.5854303  43.2678123  20.7595522  12.9883301
  43.7435489  21.1212602  12.3533482  42.7666723  21.4151990  13.2683444
  43.2643482  20.9089711  12.9360042  56.4989485  30.2317291   8.7796306
  56.8823090  30.9808647   9.0094403  55.7033598  30.4783110   8.5208295
  56.4383267  30.3786984   8.7753879  45.3104776  22.9036722   6.3556685
  45.6903741  22.9216351   5.5707800  44.5697372  23.3490711   6.2347532
  45.2573614  22.9718497   6.2220253  52.9390067  21.2118913  11.9432264
  52.9384293  21.0567570  12.8016540  52.7346247  22.0581901  11.8873649
  52.9089844  21.3139534  12.0620203  35.0007338  24.6358698  16.3591080
  34.8229099  24.1835307  17.0845996  34.7126360  25.4384859  16.5429558
  34.9320291  24.6881256  16.4934583  50.6630919  25.8916415  15.5968470
  51.1584584  25.1739410  15.5572491  49.8530694  25.5887213  15.4822957
  50.6174812  25.7414062  15.5742196  46.1089530  29.7414229   7.7465475
  45.3000853  29.4180902   7.6998784  46.6164439  29.0347451   7.6793724
  46.0639197  29.5895545   7.7295769  36.7379807  27.1686422  13.4712839
  35.8725327  27.1572112  13.3595610  36.8378623  26.9816645  14.3183978
  36.6253974  27.1392483  13.5801784  52.7282738  28.6420103  18.2845599
  53.1537809  28.1194525  17.7316024  52.3639657  29.2400940  17.7634222
  52.7369340  28.6530330  18.1254609  49.3161337  32.3554367  14.6146757
  49.7872515  33.0694630  14.7836742  49.6521515  31.7553117  15.1506626
  49.4356452  32.3725831  14.7179133  46.2330832  17.1281838  21.5704851
  46.3658738  16.3312831  21.8985827  46.6175985  17.6548241  22.1503127
  46.3087161  17.0881754  21.7048354  49.3063187  14.0512164  18.1685945
  48.5009151  13.9409893  18.4853783  49.1769923  14.1524619  17.3115810
  49.1683320  14.0495834  18.0893985  52.7629148  20.2157656  18.7625642
  52.1792136  20.7166862  18.3503209  53.0833442  19.7087212  18.1289965
  52.7242323  20.2149491  18.6084149  45.3023947  19.1298250   9.0384316
  46.1239641  19.2996563   8.7966011  44.8393598  19.2845511   8.3150614
  45.3555109  19.1779983   8.8955961  43.8919279  17.1241013  19.8182745
  44.4363692  16.7832139  20.4087087  43.9456214  17.9826474  19.9604030
  43.9808398  17.1996272  19.9264619  39.7049837  30.8857429  16.6921553
  40.3094695  30.8453263  16.0635374  39.4977150  31.7328581  16.7225609
  39.7638735  31.0045431  16.6037670  49.5193610  33.1523374  17.9083790
  50.3391983  33.0086340  18.1700086  49.2387687  33.7769573  18.4500228
  49.5990353  33.2233726  18.0271730  34.9401120  29.8692046  16.5620476
  34.8425398  29.0588318  16.8710533  35.7229989  29.8483840  16.1766744
  35.0417256  29.7459136  16.5507339  65.9907260  40.8088226  10.8726667
  65.9601264  41.6632862  11.0444936  66.5888609  40.5083518  11.4312810
  66.0744418  40.8904722  10.9801469  53.5748085  49.4326594  11.3916829
  52.8230984  49.0542133  11.1632874  54.0234096  49.4645028  10.6435639
  53.5297751  49.3812202  11.2474331  59.0273044  49.8551964   6.8202376
  58.6924413  50.5328886   6.3846598  59.5399915  49.4657275   6.2319248
  59.0538626  49.8976542   6.6689167  58.5677336  51.8066233  12.7613487
  58.9516715  52.3753131  12.2218263  58.5036477  51.0815743  12.2819304
  58.6150763  51.7841696  12.6107350  62.0358766  41.9555921  18.2711249
  62.5814726  42.6341007  18.3305219  61.9775642  41.8143381  17.4112830
  62.1074680  42.0347922  18.1523309  55.1532841  49.4444987  13.6579601
  55.2543204  48.6345341  13.9676729  54.5574586  49.3501933  13.0279280
  55.0805379  49.3110015  13.6105840  63.8123834  43.3840528   9.1444977
  63.6963360  44.1348214   9.5737115  64.6079721  43.1264481   9.3941064
  63.9128424  43.4575375   9.2449068  54.9933580  54.3622576  15.0594457
  55.6371036  54.8035740  15.4490616  55.3189836  53.5576002  14.9724716
  55.1365409  54.3087771  15.1039935  48.3497885  45.4665273  13.2831935
  48.1148069  44.6332926  13.1764204  48.4883526  45.7469939  12.4693136
  48.3353547  45.3848777  13.1474290  55.6954160  47.3734551  10.4314319
  56.0170001  47.9139758   9.8275627  56.3426257  46.8031322  10.5636609
  55.8380215  47.3693726  10.3621354  57.7455868  39.3750546  10.5148706
  58.4436033  39.5538673  11.0070169  58.0608201  38.8520885   9.8919095
  57.8951205  39.3244318  10.4950716  57.9343803  45.7620991  10.5028497
  58.3737439  45.1538091  10.9483270  57.7848466  45.3828364   9.7313962
  57.9765269  45.6159462  10.4547665  57.9401538  47.2019908  17.3554215
  58.2224781  46.4071314  17.1340971  58.6687698  47.6800496  17.3759276
  58.0891102  47.1554505  17.3257230  55.9182732  34.7442942  14.5969980
  55.5886062  35.1954086  13.9273679  55.2427733  34.6659106  15.1442987
  55.7693168  34.7994077  14.5793204  61.5353140  44.1148172   7.4559266
  61.4504435  44.9709139   7.6008835  62.0237523  43.8392496   8.1241426
  61.5942037  44.2005493   7.5761348  63.1259139  30.7328465  12.8419591
  62.8112580  31.4231944  13.2740013  62.6086081  30.6773247  12.1405092
  63.0023610  30.8263354  12.8016540  62.4671573  40.7332966   8.9557002
  61.9383045  40.9492600   9.6154308  62.9896593  41.4269105   8.8757971
  62.4660026  40.8676103   9.0412601  67.9219626  46.3079270  14.3290046
  67.0917329  46.5189914  14.4923463  67.8728878  45.4816325  14.0532330
  67.7926362  46.2168877  14.3127412  54.3571181  44.6296183   7.7564470
  53.7728396  45.1346214   8.1630333  53.9541276  44.4038570   7.0161062
  54.2110485  44.6704431   7.7069495  49.9115210  50.3450944  14.5588141
  49.4282788  51.0701434  14.5347725  50.7238528  50.6427074  14.6698299
  49.9605957  50.4953298  14.5715420  55.9829364  49.1383125  17.1637956
  55.4656305  48.7790540  16.5599264  56.6803755  48.6145299  17.1744022
  56.0094945  49.0080813  17.0768214  58.8148395  40.8761835   6.2333390
  59.0544399  41.0839819   5.4208733  59.1364236  40.0719344   6.3422335
  58.8985553  40.7875936   6.1293943  54.1238686  32.8055231  10.0792928
  54.8784654  33.1733548   9.8409978  53.9466220  33.1794785  10.8472108
  54.2093164  32.9153419  10.1577817  52.7659407  50.8607120  14.7108421
  53.4679986  50.3459109  14.7681178  52.6856890  51.1881271  15.5155296
  52.8583167  50.8321346  14.8381213  67.4173584  38.9549671  18.1240467
  66.5802006  39.0251858  18.3588062  67.3861815  38.9574166  17.2514770
  67.2891867  38.9659898  18.0300015  52.4795750  35.2125550   6.7771041
  52.2971324  35.4297430   5.9512034  53.3421363  35.3264562   6.8329656
  52.5800340  35.2615448   6.6625528  52.0910182  47.0513472  14.2194029
  52.9299082  47.2836405  14.2667791  52.1221952  46.1817783  14.1501064
  52.2191900  46.9570418  14.2158674  58.1595470  32.2151960   9.8120065
  58.8881630  32.0367915   9.3658221  58.2490362  33.0570040  10.0227243
  58.2802132  32.3135839   9.7773583  62.1403770  43.1505348  13.7152359
  62.8961285  43.5836862  13.7541268  62.2466095  42.5010117  14.2886995
  62.2673941  43.1182832  13.8050385  65.1783941  46.9778625  14.4654762
  64.7419173  46.9815367  15.2213733  64.8446857  47.6584124  14.0334339
  65.0646561  47.0791081  14.5135594  65.0981424  34.0192453  16.7084190
  65.7407333  34.0890557  17.2946105  65.3504445  33.3521676  16.2063732
  65.2303556  33.9318801  16.7211469  52.0257777  38.4899722   5.2893514
  51.3115955  38.2037902   5.7015947  52.5101746  38.8296348   5.9299902
  51.9917141  38.4981372   5.4449149  59.9083408  50.9297060  19.4364368
  59.1098654  50.6896560  19.6938236  60.3569420  50.9811453  20.1831415
  59.8558020  50.9019451  19.5849292  68.3128288  43.6959545  13.3574399
  68.9744722  43.1350213  13.2570308  67.6719700  43.2011576  13.6827090
  68.3157155  43.5395954  13.3906739  59.2005095  46.9929676   5.6655322
  59.6156244  46.6614700   4.9739818  58.3697025  46.7598578   5.5375459
  59.1393104  46.9100932   5.5446170  64.5993118  44.7124927  13.0986388
  64.8348707  44.8570126  12.2713239  64.7482682  45.4767335  13.4917902
  64.6558922  44.8463982  13.0349992  66.4283575  43.5526593  10.9355992
  66.7591792  44.0854233  10.3296087  67.0016663  43.6065481  11.5917943
  66.5617254  43.6396162  10.9433773  61.6415464  41.3991496  11.6179572
  61.7362319  42.1380790  12.0719197  61.0174308  40.9708971  12.0514136
  61.5624494  41.4452816  11.7487719  61.8938485  43.2440236   4.8516524
  61.8118648  43.3142423   5.7171511  62.5318206  43.8069980   4.6600264
  61.9758323  43.3379207   4.9506473  55.2531657  43.0100974  14.3191050
  54.9950901  42.1772708  14.2922350  55.3080139  43.2358587  13.4783551
  55.2231434  42.9198745  14.1911187  60.3332707  35.1129424  14.4195143
  59.6289033  34.6238610  14.5779062  60.3817681  35.1251899  13.5483587
  60.2362758  35.0419072  14.3134483  67.5362927  38.7937090  12.4396153
  67.2799491  37.9817032  12.2494036  68.3792240  38.8014657  12.2126341
  67.6228952  38.6749087  12.3780970  43.9723188  40.2078811  12.8200386
  44.0583439  39.8310679  13.6013915  44.5998985  39.8339256  12.3420344
  44.0779739  40.0964293  12.8645863  61.7166019  32.7336714  17.1772308
  62.0976531  32.0514885  17.5640182  60.9129303  32.4446316  16.9947972
  61.6542481  32.5903763  17.2076363  58.9978596  43.2660690   7.8625130
  59.8119234  43.5575583   7.7507902  58.9337737  42.6120552   7.2883423
  59.1081335  43.2125885   7.7613968  54.8686504  46.7382207  12.9897442
  55.5060451  46.4993955  13.5349236  55.2941575  46.9419366  12.2550603
  55.0262670  46.7333218  12.9614600  55.5089319  41.9584497   7.3272332
  55.8934472  41.7392204   8.0788877  55.2600939  42.7847443   7.4573408
  55.5291392  42.0482643   7.4573408  66.2424506  45.7331135  18.3383000
  65.9370323  46.4659192  18.6996316  65.5230722  45.3269064  18.0575786
  66.0911849  45.7812868  18.3496138  57.2507976  47.2154630  14.6691229
  57.3246984  47.0529802  15.5233079  58.0677482  47.4044820  14.4251710
  57.3824334  47.2191372  14.7589254  71.9426299  42.3724136  17.6651345
  71.8750799  42.3920095  16.7953931  71.9281961  43.2154463  17.8907015
  71.9305055  42.4997870  17.5703822  51.0113733  47.5612493  11.6985672
  50.1851850  47.8074230  11.5719951  51.0725724  47.4824574  12.5647730
  50.8987900  47.5857442  11.8074617  53.2289756  33.6281434  12.6581112
  52.3612182  33.7004033  12.7238722  53.5164961  34.4303513  12.8469087
  53.1429504  33.7575581  12.6955879  55.7912562  50.1789373   9.4004702
  56.0810860  49.7878354   8.6763929  56.5216042  50.3606078   9.8409977
  55.9419446  50.1483187   9.3587509  69.7284916  41.1468522  15.9397939
  70.2792837  40.5136591  16.1795031  69.7129031  41.6783915  16.6313443
  69.8070112  41.1317470  16.0776797  53.7318477  52.1556755  12.4664852
  53.5118773  51.8654110  13.2591519  53.5112999  51.4971711  11.9382764
  53.6666071  52.0156464  12.5053760  63.4313322  39.3864855  15.0502535
  63.0878088  38.6655191  15.4009785  63.5306365  39.1778707  14.2080894
  63.3955365  39.2489059  14.9774215  55.8986433  53.5286145  11.2495544
  56.5510491  52.9962588  11.4786570  55.2012042  53.1754798  11.6363418
  55.8917151  53.3975668  11.3407712  52.8467698  45.8825323  10.6562918
  53.6013666  46.2638362  10.8698381  52.2538310  46.3336467  11.1109615
  52.8704411  46.0054150  10.7545797  63.8926351  45.8490559  10.5926523
  64.4584384  46.5083769  10.5085066  63.2454255  46.1940258  11.0642926
  63.8805108  45.9972501  10.6499280  51.1557108  37.1039693  10.0997989
  50.8681904  36.7340964   9.3629936  51.8427577  37.5734548   9.8381693
  51.2146006  37.1186662   9.9513064  60.3632929  48.7929344  10.0163603
  60.1219605  48.0597204   9.6090668  60.5434262  49.3416201   9.3629936
  60.3540553  48.7651735   9.8593826  55.5932250  44.0837903  11.4284525
  55.3975033  44.6912638  10.8344828  55.8166596  43.3905847  10.9476199
  55.5966891  44.0715429  11.2700606  53.9910780  40.9692641  11.5465393
  54.7133432  41.1333799  11.0869199  53.5118773  41.6902306  11.4404733
  54.0274511  41.0990871  11.4631007  61.9504288  37.3056440  16.9262078
  61.1115388  37.3317719  16.6900341  62.0208655  37.9527176  17.5067425
  61.8372681  37.4052566  16.9771195  60.3973566  34.2041817  11.6589694
  61.0999919  34.0049565  11.1809652  60.1317755  33.4317760  11.9658538
  60.4620198  34.0604783  11.6335136  65.8261811  42.5124427  14.2123320
  65.7395786  42.6679853  15.0658099  65.3712291  43.1562502  13.8382725
  65.7465068  42.6300182  14.2830427  48.7285303  37.8820906  10.9483270
  48.8301439  38.6847067  11.2764245  49.5241190  37.6808242  10.6506350
  48.8613209  37.9706804  10.9518625  59.6987627  39.8335174  12.8348879
  59.4522342  39.7530925  13.6685668  60.0272751  39.0488642  12.6411407
  59.7108871  39.7061439  12.9296403  63.5935676  46.5418533  16.6235661
  63.4550036  47.2399579  17.1284403  62.8135674  46.3867190  16.2671842
  63.4578903  46.6218700  16.6461935  54.7312410  50.7594664  19.1132889
  54.8801973  50.1997580  18.4606294  55.5112412  50.8386666  19.4965408
  54.8686503  50.6880230  19.0729838  65.0889049  45.8996787   7.3852160
  64.7095858  45.1133925   7.3781449  64.4255295  46.4483644   7.2423804
  64.9347524  45.8641611   7.3632957  57.2565710  50.9309307  20.3917380
  57.1809381  50.2618118  20.9468168  57.1855569  51.6327095  20.9058046
  57.2346317  50.9354215  20.5494228  62.5433675  28.8422487  14.7886241
  62.6617243  29.2998950  14.0553543  62.3695851  28.0367748  14.5022458
  62.5352846  28.7916259  14.6387174  57.9135957  49.4510306  11.2240986
  58.6785848  49.1819950  10.9023650  57.8114047  48.9660317  11.9411049
  58.0117453  49.3399871  11.2820814  60.4354618  46.4822490   3.2040935
  61.2027603  46.5422615   2.7946787  59.9885927  45.9102931   2.7197254
  60.4828045  46.4059066   3.0718646  61.3332413  45.2877146  15.4893668
  60.6577415  45.0562378  15.9907055  61.3424789  44.6798329  14.8635773
  61.2350918  45.1636071  15.4709820  63.3349148  48.1442278   7.7203846
  63.4168985  48.9509264   7.3965297  63.8198890  48.1638237   8.4444619
  63.4186306  48.2662941   7.7790744  57.1445651  42.8227114  16.3873924
  56.7207900  43.0231613  15.6512942  56.9690506  41.9755962  16.4998224
  57.0556532  42.7275896  16.2947614  56.6457345  54.3377627  18.8495381
  57.1353275  53.6388416  18.6671046  56.0741577  54.0401497  19.4371438
  56.6341875  54.1903851  18.9096422  52.4328096  43.3179166  11.8201896
  52.5892715  43.2525968  12.6757888  52.7728689  44.0927718  11.6080576
  52.5061331  43.4228364  11.9156490  58.9707241  42.6937049  10.6895259
  59.5122786  42.1907430  11.1533880  59.2853800  42.6402244   9.8784745
  59.0971638  42.6116470  10.6379072  57.1393690  48.0854401   7.9735287
  57.2086511  47.2268939   8.1128288  57.9182146  48.3026282   7.6454312
  57.2646541  47.9907265   7.9452445  61.5301178  50.5092102  12.1871781
  61.1380970  50.2058817  11.4694647  61.6854250  51.3461192  11.9976735
  61.4954768  50.5875939  12.0528278  49.0062358  40.5014116  12.1362663
  49.3861322  40.9198661  11.4722931  48.4317722  41.0827572  12.4431507
  48.9773683  40.6491975  12.0839404  61.6940853  47.0742091  12.1277811
  61.3355508  47.2456734  12.9041844  61.2079564  47.5355296  11.5705810
  61.5699550  47.1681062  12.1603080  59.5111239  30.6973289  15.7304903
  58.6404797  30.6712010  15.6838212  59.7651580  30.5250481  14.9130748
  59.4204799  30.6683433  15.6025039  56.4829218  42.7541256   4.6678046
  56.7721743  43.5306139   4.9421620  56.5701017  42.2429988   5.3692545
  56.5383474  42.7933175   4.8120544  56.5360379  32.7079518  17.1878373
  56.0198868  32.0159709  17.3129952  55.9754308  33.3750295  17.1340972
  56.3766893  32.7042775  17.1984439  58.6052613  33.2472478  19.0171226
  58.2184366  33.2721509  19.7984756  58.1185550  32.6814156  18.5645742
  58.4765122  33.1668229  19.0659129  64.5802592  39.8135133  17.6410928
  64.1530200  39.7261481  16.8859027  63.9428645  39.9212908  18.2265772
  64.4232200  39.8167793  17.6156369  62.9099849  48.6565795  19.7150369
  63.6992227  48.3054860  19.8352451  63.0843447  49.4702183  19.4527003
  63.0520130  48.7251652  19.6938237  50.1268726  39.6894058  14.5962908
  49.7325424  39.7637069  13.8213018  49.5708843  40.0752004  15.1471270
  49.9871539  39.7575832  14.5630568  56.4609824  39.9955920  16.0175755
  56.1572962  39.4411908  16.6186163  55.7589245  40.1748130  15.5303790
  56.3126034  39.9400702  16.0345461  55.5175921  37.3056440  10.5820457
  55.7935655  36.5875352  10.1698025  56.1174590  37.9041360  10.3741563
  55.6469186  37.2876810  10.4901218  65.0167361  33.2207116  13.7569553
  64.4041674  33.7077518  14.1423285  65.1131536  32.5450607  14.3007204
  64.9405258  33.1925425  13.8948411  59.0186442  34.9769957   8.8567052
  59.4730188  35.1480517   9.5814897  59.4926487  34.3638068   8.4564828
  59.1554762  34.9120842   8.9040814  68.6592389  44.2924053  19.1847069
  68.7175512  44.7410701  19.9307045  68.0258856  44.7022866  18.7477149
  68.5743684  44.4197787  19.2299617  62.2991483  49.9127595  15.6201815
  62.1011172  50.4018409  14.9258026  61.6779194  50.1168836  16.1985949
  62.1779048  50.0144133  15.6025038  56.3599462  41.6812491   9.9612059
  57.1041507  42.0686768  10.1995009  56.5060158  40.8369917  10.1252547
  56.4910047  41.6142964  10.0206029  58.2779037  33.4762750  14.9943921
  57.4315082  33.6485558  14.8685271  58.2750170  32.6712094  15.3309749
  58.1526187  33.3823779  15.0255048  59.3477338  37.2537965  15.8605979
  58.8737292  36.7279727  16.3711290  59.7195473  36.7067438  15.2920840
  59.3327226  37.0953961  15.8521126  65.6114068  42.3140340  17.2712759
  65.3712291  41.4746756  17.2755186  66.0906075  42.3940507  17.9953533
  65.6466252  42.2021740  17.3787562  61.2760837  38.1474519   8.9231733
  60.7483856  38.2303263   8.2337441  61.7356545  38.8892391   8.9196377
  61.2662688  38.2695182   8.8206428  67.6119255  39.0941798  15.2242018
  67.3729025  39.0537632  14.3862803  67.7753156  39.9412950  15.3507739
  67.6009559  39.2133883  15.1195500  53.2693902  36.4177039   3.9472628
  52.9206707  37.0696764   4.4104177  52.7890348  36.4034152   3.2196499
  53.1464146  36.5120092   3.9083719  60.8297920  46.7178083   8.0541390
  61.5532119  47.1836196   7.9105963  60.3898511  46.7851693   7.3038987
  60.8713612  46.7961920   7.9226171  59.2380372  44.6479895  17.0386377
  58.8107980  44.0229614  16.6051813  59.2305316  44.3654817  17.8645384
  59.1739513  44.5132676  17.0966205  57.5666082  35.5248650  17.2528911
  57.5908569  34.9908762  16.5641691  57.8177555  35.0165959  17.9154502
  57.6076000  35.3709554  17.2493556  45.0773671  42.8080145  16.6872055
  44.9717121  42.7626989  15.8224139  44.3273891  43.1533925  16.9686340
  44.9509274  42.8521053  16.6009385  53.6417811  39.0435569   9.4598672
  53.7820772  39.5408034  10.1627314  54.1400344  38.3421864   9.6012886
  53.7358892  39.0137548   9.5850251  53.6718033  39.9102680   6.7891249
  54.3063113  40.5063105   6.7240711  53.7543644  39.6106138   7.6037119
  53.7774584  39.9543589   6.8994336  66.6500599  42.4418158  19.6577613
  67.2418439  43.0815408  19.6895811  67.0859594  41.7441194  19.9469680
  66.8019030  42.4336508  19.7058446  55.2497016  35.8416656   6.7636691
  55.5712857  35.3619738   6.1095953  55.5123960  36.6516302   6.5727503
  55.3363042  35.8906554   6.6392183  50.1771021  42.1070521  10.0580795
  50.6863251  42.7035029  10.4392101  50.6505294  41.8396495   9.3757215
  50.3214397  42.1556337  10.0135318  61.0901769  50.7798788   8.2139451
  60.3731079  50.6059650   7.7486688  61.7408507  50.5451360   7.6814937
  61.0803620  50.7194580   8.0668669  59.0850394  31.7003950  12.5350747
  58.4418712  31.5501596  13.1035886  58.7449801  31.4546295  11.7699852
  58.9395471  31.6416072  12.5053762  63.6749741  39.6563376  11.9580756
  63.0040930  40.1993079  11.8293821  64.3689491  40.1258232  11.7162451
  63.6778608  39.8061648  11.9036284  57.7236474  51.7960088  17.1892514
  57.5002129  51.0378918  17.5576540  57.2346318  51.8258110  16.4672954
  57.6179923  51.6882313  17.1369255  63.8377868  36.1119260  14.8671129
  64.1905478  35.6848983  15.5416928  62.9792670  36.0270104  14.9972205
  63.7627313  36.0364001  14.9866139  52.5361553  38.7426780  12.9253976
  51.8173542  39.1590912  13.1926839  52.9073915  39.3081018  12.3745614
  52.4853485  38.8876061  12.8836783  56.3714931  52.0160546  14.6429599
  55.9575330  51.3534677  14.2533440  57.0562306  52.1638405  14.1225293
  56.4113303  51.9401205  14.5086096  59.7380225  51.1750632  15.3953215
  59.3396509  51.2852902  14.6274036  59.1231445  51.3832698  15.9779775
  59.5879115  51.2224200  15.3684515  58.3108127  37.7824780   8.2627355
  57.7172967  38.1041776   7.7111922  58.3483405  36.9365875   8.0548461
  58.2282517  37.7049108   8.1510126  65.2701928  31.2337672  15.7955441
  64.7632793  30.5266811  15.7276619  66.0669362  30.9030861  15.9256518
  65.3129167  31.0810823  15.8054436  61.1865944  37.7404284  11.6929105
  60.9579637  37.7636986  10.8507463  61.4464020  36.9161751  11.8124116
  61.1912132  37.6220364  11.5854303  54.2410706  36.2780830  12.9883301
  54.7168073  36.6397910  12.3533482  53.7399306  36.9337298  13.2683444
  54.2376065  36.4275019  12.9360042  67.4722068  45.7502598   8.7796306
  67.8555674  46.4993955   9.0094403  66.6766181  45.9968418   8.5208295
  67.4115850  45.8972292   8.7753879  56.2837360  38.4222030   6.3556685
  56.6636324  38.4401659   5.5707800  55.5429956  38.8676019   6.2347532
  56.2306197  38.4903805   6.2220253  63.9122650  36.7304221  11.9432264
  63.9116877  36.5752878  12.8016540  63.7078830  37.5767208  11.8873649
  63.8822428  36.8324842  12.0620203  45.9739921  40.1544006  16.3591080
  45.7961682  39.7020615  17.0845996  45.6858943  40.9570167  16.5429558
  45.9052874  40.2066564  16.4934583  61.6363502  41.4101723  15.5968470
  62.1317168  40.6924718  15.5572491  60.8263278  41.1072521  15.4822957
  61.5907396  41.2599369  15.5742196  57.0822114  45.2599536   7.7465475
  56.2733436  44.9366210   7.6998784  57.5897023  44.5532759   7.6793724
  57.0371781  45.1080853   7.7295769  47.7112391  42.6871730  13.4712839
  46.8457910  42.6757420  13.3595610  47.8111207  42.5001952  14.3183978
  47.5986558  42.6577791  13.5801784  63.7015321  44.1605411  18.2845599
  64.1270393  43.6379833  17.7316024  63.3372241  44.7586248  17.7634222
  63.7101924  44.1715638  18.1254609  53.3369401  52.4569628  17.0442945
  53.6515960  53.2706017  17.0520726  53.7462814  52.0719847  17.7125104
  53.4437499  52.5198331  17.1447036  60.2893921  47.8739675  14.6146757
  60.7605099  48.5879938  14.7836742  60.6254099  47.2738425  15.1506626
  60.4089036  47.8911139  14.7179133  60.2795771  29.5697472  18.1685945
  59.4741734  29.4595201  18.4853783  60.1502506  29.6709927  17.3115810
  60.1415904  29.5681142  18.0893985  56.2756530  34.6483558   9.0384316
  57.0972225  34.8181871   8.7966011  55.8126181  34.8030819   8.3150614
  56.3287693  34.6965291   8.8955961  60.4926193  48.6708682  17.9083790
  61.3124567  48.5271648  18.1700086  60.2120271  49.2954881  18.4500228
  60.5722937  48.7419034  18.0271730  70.1639528  55.4149184  15.6279597
  69.3077424  55.5757683  15.6788714  70.2107182  54.5441248  15.6484658
  70.0438640  55.3099986  15.6385663  73.4733245  61.6835710  25.2340053
  74.1800012  61.1887741  25.3626988  73.6621180  62.1244792  24.5042711
  73.6061151  61.6754060  25.1449099  73.0091349  57.4741228  18.2711249
  73.5547309  58.1526315  18.3305219  72.9508226  57.3328689  17.4112830
  73.0807264  57.5533230  18.1523309  59.3230469  60.9850581  13.2831935
  59.0880653  60.1518233  13.1764204  59.4616109  61.2655247  12.4693136
  59.3086131  60.9034084  13.1474290  61.6220556  53.1536312  16.1816243
  61.0025588  52.5628959  16.0126257  61.5204420  53.7447747  15.5480566
  61.5158232  53.1540394  16.0621232  68.7188452  54.8935853  10.5148706
  69.4168616  55.0723981  11.0070169  69.0340784  54.3706193   9.8919095
  68.8683789  54.8429626  10.4950716  61.3489689  56.6988593  18.4259812
  61.2248386  57.2851039  19.0609631  62.0007974  56.2048789  18.7272087
  61.4263338  56.7127398  18.5645741  66.3748030  59.8750310  17.7047323
  67.0197033  59.3822753  17.3858271  66.6149807  60.0175097  18.5313401
  66.5058615  59.8227753  17.7796856  68.9134121  62.7205216  17.3554215
  69.1957364  61.9256622  17.1340971  69.6420282  63.1985804  17.3759276
  69.0623685  62.6739813  17.3257230  66.8915315  50.2628250  14.5969980
  66.5618645  50.7139394  13.9273679  66.2160317  50.1844413  15.1442987
  66.7425752  50.3179385  14.5793204  74.0991723  46.2513773  12.8419591
  73.7845164  46.9417252  13.2740013  73.5818665  46.1958555  12.1405092
  73.9756193  46.3448662  12.8016540  60.8847793  65.8636252  14.5588141
  60.4015371  66.5886742  14.5347725  61.6971112  66.1612382  14.6698299
  60.9338541  66.0138606  14.5715420  66.9561947  64.6568433  17.1637956
  66.4388889  64.2975848  16.5599264  67.6536339  64.1330607  17.1744022
  66.9827528  64.5266121  17.0768214  70.6125539  65.1063247  23.1254129
  70.7008885  64.9189387  23.9732339  71.0415252  64.4600676  22.7258975
  70.6887642  64.9826254  23.1925880  68.1795999  64.3894407  22.1071791
  67.6166834  63.9767016  22.6311452  68.9417023  64.3147312  22.5264934
  68.2090448  64.3171807  22.2464791  65.0971269  48.3240539  10.0792928
  65.8517237  48.6918856   9.8409978  64.9198804  48.6980093  10.8472108
  65.1825748  48.4338726  10.1577817  63.7391991  66.3792428  14.7108421
  64.4412570  65.8644417  14.7681178  63.6589474  66.7066579  15.5155296
  63.8315751  66.3506654  14.8381213  78.3906168  54.4734979  18.1240467
  77.5534589  54.5437166  18.3588062  78.3594399  54.4759474  17.2514770
  78.2624450  54.4845206  18.0300015  64.7870897  56.6168015  23.8388836
  64.9591401  56.5073909  24.6874117  65.3240255  57.2622420  23.6020028
  64.8915901  56.6960016  23.9293933  63.4528334  50.7310858   6.7771041
  63.2703907  50.9482738   5.9512034  64.3153947  50.8449870   6.8329656
  63.5532923  50.7800755   6.6625528  63.0642766  62.5698780  14.2194029
  63.9031665  62.8021713  14.2667791  63.0954535  61.7003091  14.1501064
  63.1924484  62.4755726  14.2158674  63.6895469  62.9899655  18.5207335
  64.2293694  62.8470786  19.1910707  63.0065415  63.3896406  18.8891361
  63.6687623  63.0279326  18.6741756  69.1328053  47.7337268   9.8120065
  69.8614214  47.5553223   9.3658221  69.2222946  48.5755348  10.0227243
  69.2534715  47.8321147   9.7773583  70.7245599  64.5372266  25.7897912
  71.5086015  64.6503113  26.1553654  70.5242193  63.7113403  25.9856598
  70.8111624  64.4318985  25.8732298  59.0932614  59.2099946  18.6741756
  58.8271029  58.3939062  18.8332746  59.1071178  59.2553101  17.8037272
  59.0557336  59.0956851  18.5695238  76.0714008  49.5377761  16.7084190
  76.7139916  49.6075865  17.2946105  76.3237029  48.8706984  16.2063732
  76.2036140  49.4504109  16.7211469  63.8431220  52.7478324  21.3208764
  63.1503017  52.2775304  21.5669495  64.4591548  52.5216629  21.8950471
  63.8315750  52.6445456  21.4417916  70.8815992  66.4482368  19.4364368
  70.0831238  66.2081868  19.6938236  71.3302003  66.4996761  20.1831415
  70.8290603  66.4204759  19.5849292  59.5026028  59.9958725  15.9553500
  59.3201601  59.9705611  15.1025793  60.2375697  60.4657663  15.9942409
  59.5840092  60.0620087  15.8351419  62.5671779  56.7143728  22.4635609
  63.2911752  56.6996759  22.9500504  62.6687916  57.4239083  21.9657577
  62.6889988  56.8168431  22.4614396  69.9416729  60.1942813  27.3284556
  69.1489710  60.5086324  27.5137176  70.0565656  60.4094281  26.4905341
  69.8412139  60.2726649  27.2322891  70.8700522  60.0963016  22.2669853
  71.4439383  59.4590261  22.4218417  70.7915325  60.0967099  21.3979510
  70.9433756  60.0028128  22.1616264  59.4696938  56.8752226  16.1052567
  60.0470441  56.7388677  16.7444812  58.7711000  56.4188010  16.3598151
  59.4517959  56.7874492  16.2374857  66.2264240  58.5286282  14.3191050
  65.9683484  57.6958016  14.2922350  66.2812723  58.7543895  13.4783551
  66.1964018  58.4384053  14.1911187  71.3065290  50.6314732  14.4195143
  70.6021617  50.1423918  14.5779062  71.3550265  50.6437207  13.5483587
  71.2095342  50.5604380  14.3134483  65.1998952  56.0824044  14.8055945
  64.6248544  56.2416212  15.4419906  64.8234629  55.4459453  14.3424395
  65.0601765  56.0121857  14.8310503  68.8672241  54.5547393  19.6648323
  68.4786674  54.1301611  19.0100515  68.2026939  54.8029543  20.1725350
  68.7119169  54.5286114  19.6436191  54.9455771  55.7264119  12.8200386
  55.0316023  55.3495987  13.6013915  55.5731569  55.3524564  12.3420344
  55.0512322  55.6149601  12.8645863  72.6898603  48.2522022  17.1772308
  73.0709114  47.5700193  17.5640182  71.8861887  47.9631624  16.9947972
  72.6275064  48.1089071  17.2076363  76.1920669  61.4671994  22.2754706
  75.9559307  60.6360059  22.1566767  76.8363898  61.4157601  22.8609550
  76.2515340  61.3369682  22.3440600  60.5331730  64.4955852  16.8731746
  60.5735875  64.7670703  16.0451526  61.0926254  65.0197760  17.2889534
  60.6215076  64.6131607  16.8123634  66.6490443  50.7576220  27.0434916
  66.3343884  51.5275783  26.7804479  66.3280375  50.1946476  26.4587143
  66.5549362  50.7886489  26.9176266  77.2157090  61.2516443  18.3383000
  76.9102907  61.9844500  18.6996316  76.4963306  60.8454372  18.0575786
  77.0644432  61.2998176  18.3496138  64.2022340  49.1466742  12.6581112
  63.3344765  49.2189341  12.7238722  64.4897544  49.9488821  12.8469087
  64.1162088  49.2760889  12.6955879  73.3255229  49.2944601  20.9892434
  74.0708821  49.1054412  20.5755860  72.9092533  49.8202839  20.4306290
  73.3740203  49.3446747  20.8457007  80.7017499  56.6653830  15.9397939
  81.2525421  56.0321899  16.1795031  80.6861615  57.1969222  16.6313443
  80.7802696  56.6502778  16.0776797  67.3539890  60.4992427  20.4857833
  66.8551584  61.2108195  20.5642721  68.1640115  60.8193094  20.4475995
  67.3995997  60.6519276  20.4914401  63.6168008  59.7615380  14.7320553
  63.3281257  59.1352851  15.2666281  64.4851356  59.7035667  14.7985234
  63.7028260  59.6602924  14.8211508  74.4045906  54.9050163  15.0502535
  74.0610672  54.1840499  15.4009785  74.5038948  54.6964014  14.2080894
  74.3687949  54.7674367  14.9774215  66.2806948  53.3573471  25.7820131
  65.4706724  53.6631251  25.6709973  66.7581635  54.0779054  25.8972715
  66.2310427  53.5088072  25.7827202  65.1398508  62.5719192  16.0303034
  64.6179261  62.7119484  16.7154899  65.5272528  61.8129857  16.2205151
  65.1202209  62.4804716  16.1604110  62.1289692  52.6225001  10.0997989
  61.8414488  52.2526271   9.3629936  62.8160160  53.0919856   9.8381693
  62.1878589  52.6371970   9.9513064  64.9643364  56.4877949  11.5465393
  65.6866015  56.6519107  11.0869199  64.4851356  57.2087614  11.4404733
  65.0007094  56.6176179  11.4631007  72.9236871  52.8241748  16.9262078
  72.0847972  52.8503027  16.6900341  72.9941238  53.4712484  17.5067425
  72.8105265  52.9237874  16.9771195  62.6150980  58.8936022  20.6519533
  63.1272077  59.1720275  20.0028293  62.3287323  59.6325316  21.0182346
  62.6485843  59.0438375  20.6109411  71.3706149  49.7227125  11.6589694
  72.0732502  49.5234873  11.1809652  71.1050338  48.9503067  11.9658538
  71.4352782  49.5790091  11.6335136  59.7017887  53.4006214  10.9483270
  59.8034023  54.2032375  11.2764245  60.4973773  53.1993549  10.6506350
  59.8345792  53.4892112  10.9518625  66.1334706  50.9862410  20.7120575
  65.9417903  51.0017545  21.5619998  66.9833302  51.1826085  20.6887230
  66.2310428  51.0176761  20.8343869  60.5181619  53.5153392  18.6904391
  60.3767110  52.6637332  18.8148899  60.8022182  53.5582052  17.8666597
  60.5389465  53.3953142  18.5872015  70.6720211  55.3520482  12.8348879
  70.4254925  55.2716233  13.6685668  71.0005334  54.5673950  12.6411407
  70.6841455  55.2246747  12.9296403  74.5668260  62.0603841  16.6235661
  74.4282619  62.7584887  17.1284403  73.7868258  61.9052498  16.2671842
  74.4311487  62.1404008  16.6461935  72.9046345  58.3600217  22.8758042
  72.8994383  57.4880033  22.8800469  73.6107339  58.5588386  22.4027498
  73.0091349  58.2604091  22.8065078  66.6317238  58.0877201  22.2471863
  66.7760614  58.6678409  21.6114973  66.9792887  58.4653497  22.9521717
  66.7044700  58.2297905  22.2570857  68.8037156  57.2867369  20.0296994
  68.0560470  57.4798383  19.6245272  68.9578681  56.4612588  19.7921115
  68.7159583  57.1932480  19.9342400  65.7044993  66.2779972  19.1132889
  65.8534557  65.7182888  18.4606294  66.4844995  66.3571974  19.4965408
  65.8419087  66.2065538  19.0729838  68.2298294  66.4494615  20.3917380
  68.1541965  65.7803426  20.9468168  68.1588153  67.1512403  20.9058046
  68.2078901  66.4539523  20.5494228  69.0438933  51.1817920  20.9192398
  69.5011547  51.9141894  21.0465190  69.1195261  50.7584385  21.6779654
  69.1229903  51.2275158  21.0493474  73.5166259  44.3607795  14.7886241
  73.6349827  44.8184258  14.0553543  73.3428434  43.5553056  14.5022458
  73.5085430  44.3101567  14.6387174  66.9221311  53.1720024  17.7634222
  66.1317385  52.9911484  18.0851558  67.3181933  52.3946976  17.7464516
  66.8638187  53.0307484  17.8086770  72.3064997  60.8062454  15.4893668
  71.6309999  60.5747686  15.9907055  72.3157373  60.1983637  14.8635773
  72.2083501  60.6821379  15.4709820  69.4359141  55.6480283  22.2457721
  69.3718282  56.5090239  22.1177857  69.5756329  55.3312276  21.4453272
  69.4474611  55.7280449  22.1085934  68.1178235  58.3412422  16.3873924
  67.6940484  58.5416921  15.6512942  67.9423090  57.4941270  16.4998224
  68.0289115  58.2461203  16.2947614  67.6189928  69.8562935  18.8495381
  68.1085859  69.1573724  18.6671046  67.0474161  69.5586805  19.4371438
  67.6074458  69.7089159  18.9096422  63.4060680  58.8364473  11.8201896
  63.5625299  58.7711276  12.6757888  63.7461273  59.6113026  11.6080576
  63.4793915  58.9413672  11.9156490  73.8156932  62.4225004  27.8022172
  74.6291797  62.1510153  27.9627304  73.6551898  62.1232544  26.9982368
  73.9126880  62.3379930  27.7067578  71.0929094  53.1058662  20.7417560
  71.3071063  52.4669576  20.1880914  70.4762993  53.5504485  20.3125422
  71.0334423  53.0768805  20.5967991  59.9794941  56.0199424  12.1362663
  60.3593906  56.4383969  11.4722931  59.4050306  56.6012880  12.4431507
  59.9506266  56.1677283  12.0839404  73.2568182  54.7147727  21.6800867
  72.4444863  54.4073617  21.7614040  73.7158116  54.2346727  22.2443579
  73.2048566  54.5984219  21.7755461  70.4843822  46.2158597  15.7304903
  69.6137380  46.1897318  15.6838212  70.7384164  46.0435789  14.9130748
  70.3937382  46.1868741  15.6025039  70.3521689  56.1207798  26.4629569
  70.8221320  56.7449915  26.8497443  70.3983569  55.4524774  27.0222784
  70.4289565  56.1142478  26.6029641  67.5092963  48.2264826  17.1878373
  66.9931451  47.5345017  17.3129952  66.9486892  48.8935603  17.1340972
  67.3499476  48.2228083  17.1984439  69.5785196  48.7657786  19.0171226
  69.1916949  48.7906817  19.7984756  69.0918134  48.1999464  18.5645742
  69.4497705  48.6853537  19.0659129  73.8278176  63.4831295  23.0745012
  74.4657896  62.9891490  22.7407468  73.1852267  63.4108695  22.4897239
  73.8272402  63.3990303  22.9387367  75.5535176  55.3320441  17.6410928
  75.1262784  55.2446789  16.8859027  74.9161229  55.4398216  18.2265772
  75.3964783  55.3353100  17.6156369  69.2442338  45.6524771  21.3081486
  69.8735456  46.1885071  21.0302556  69.4128201  45.5602130  22.1595051
  69.3620133  45.7186133  21.3930014  69.0456253  50.4395966  23.5807897
  69.8729682  50.1681115  23.6366512  69.0664099  51.2356808  23.9371715
  69.1709103  50.5175720  23.6423080  73.8832432  64.1751103  19.7150369
  74.6724811  63.8240168  19.8352451  74.0576030  64.9887491  19.4527003
  74.0252714  64.2436960  19.6938237  63.6225743  57.5859829  16.7678158
  62.7813749  57.4863703  16.9757052  63.8315751  58.3555309  17.1192478
  63.5290435  57.6851872  16.8505473  61.1001310  55.2079366  14.5962908
  60.7058007  55.2822377  13.8213018  60.5441427  55.5937312  15.1471270
  60.9604122  55.2761140  14.5630568  72.7366257  48.1860660  14.2766787
  72.9415850  48.1182968  15.1223785  72.4092680  48.9919481  14.2087965
  72.7181504  48.2946600  14.3926442  67.4342408  55.5141228  16.0175755
  67.1305545  54.9597216  16.6186163  66.7321828  55.6933438  15.5303790
  67.2858617  55.4586010  16.0345461  66.4908505  52.8241748  10.5820457
  66.7668239  52.1060660  10.1698025  67.0907174  53.4226668  10.3741563
  66.6201769  52.8062118  10.4901218  65.4960759  62.7290949  20.7247853
  65.3881114  62.7393011  21.5909911  65.7056540  63.5545729  20.5352807
  65.5110870  62.8532023  20.8251945  75.9899944  48.7392424  13.7569553
  75.3774258  49.2262826  14.1423285  76.0864119  48.0635915  14.3007204
  75.9137842  48.7110733  13.8948411  69.9919025  50.4955265   8.8567052
  70.4462772  50.6665825   9.5814897  70.4659071  49.8823376   8.4564828
  70.1287345  50.4306150   8.9040814  63.5134551  59.9803591  18.1869791
  62.9222484  60.6213089  18.1572806  64.2755574  60.4041208  18.1601090
  63.5382811  60.1379429  18.1784938  63.9095173  51.1405589  18.8537808
  64.3696655  51.2144518  19.5912932  63.9551280  51.9386843  18.5037630
  63.9845729  51.2699736  18.9110565  65.5578523  51.8072284  23.4209835
  65.1664088  51.1605631  23.8565613  65.7264386  52.3983719  24.0404091
  65.5249434  51.7986551  23.5772541  79.6324972  59.8109361  19.1847069
  79.6908096  60.2596009  19.9307045  78.9991440  60.2208173  18.7477149
  79.5476267  59.9383095  19.2299617  69.2511621  48.9948058  14.9943921
  68.4047666  49.1670866  14.8685271  69.2482753  48.1897402  15.3309749
  69.1258771  48.9009087  15.0255048  70.3209921  52.7723273  15.8605979
  69.8469875  52.2465035  16.3711290  70.6928057  52.2252746  15.2920840
  70.3059810  52.6139269  15.8521126  60.6982951  54.7694779  21.2289525
  61.5608564  54.6690489  21.1426854  60.3674734  54.1889489  20.6675097
  60.7768148  54.6686406  21.1334930  76.5846652  57.8325648  17.2712759
  76.3444875  56.9932064  17.2755186  77.0638659  57.9125815  17.9953533
  76.6198835  57.7207048  17.3787562  78.5851839  54.6127106  15.2242018
  78.3461609  54.5722940  14.3862803  78.7485740  55.4598258  15.3507739
  78.5742142  54.7319191  15.1195500  75.1897869  58.9977055  21.1547064
  75.9132068  58.5449581  20.9758083  74.9247831  59.2781721  20.3719391
  75.2579142  58.9728023  21.0125779  64.0584737  53.5937228  17.8899943
  63.4337807  53.6055620  17.2825895  63.7230332  54.0697404  18.5391183
  63.9170229  53.6655745  17.8956511  60.7710413  61.6537688  19.3303707
  60.2410337  60.9630127  19.3798682  61.0435506  61.6447874  18.5016416
  60.7335135  61.5504820  19.2151123  70.9716658  59.0960933  19.3042079
  70.3573651  58.5518983  19.5990714  71.4883943  58.5825170  18.8247895
  70.9572321  58.9397342  19.2766307  70.2112955  60.1665203  17.0386377
  69.7840564  59.5414922  16.6051813  70.2037900  59.8840125  17.8645384
  70.1472097  60.0317984  17.0966205  63.3275483  55.2030376  20.1074811
  63.4868969  54.4473700  20.5126533  63.1468376  55.7521316  20.7615549
  63.3240842  55.1724190  20.2637517  71.2695786  47.3691612  20.6625601
  70.7736347  47.5655286  19.9717167  72.0264848  47.7684280  20.4914402
  71.3082610  47.4569346  20.5345737  68.5398665  51.0433958  17.2528911
  68.5641152  50.5094070  16.5641691  68.7910139  50.5351266  17.9154502
  68.5808584  50.8894862  17.2493556  56.0506255  58.3265453  16.6872055
  55.9449704  58.2812297  15.8224139  55.3006475  58.6719233  16.9686340
  55.9241858  58.3706361  16.6009385  64.8199987  49.7704776  16.6334656
  64.8598359  50.2713982  17.3469363  63.9949652  49.8615170  16.3640579
  64.7039513  49.8586592  16.6985194  67.0029600  59.3365516  24.7354950
  66.1525231  59.4737230  24.8712595  67.1657728  58.6029294  25.1802652
  66.9013464  59.2479617  24.8210549  66.2414351  56.2865286  18.9308555
  65.4106280  56.4539104  18.7243803  66.1865868  55.9101237  19.7157440
  66.1103766  56.2555017  19.0157083  64.6150395  54.5620877   9.4598672
  64.7553356  55.0593342  10.1627314  65.1132927  53.8607172   9.6012886
  64.7091476  54.5322856   9.5850251  77.6233183  57.9603466  19.6577613
  78.2151023  58.6000716  19.6895811  78.0592177  57.2626502  19.9469680
  77.7751614  57.9521816  19.7058446  69.4526573  62.3820838  20.2835507
  68.9451664  62.9356685  20.7276138  69.1553219  62.4429128  19.4654282
  69.3331458  62.4727149  20.2283964  71.6188755  50.7474158  19.1260170
  72.0443826  50.2946684  18.5143697  71.0045748  50.1934228  19.4024958
  71.5917400  50.5988134  19.0765195  61.1503605  57.6255829  10.0580795
  61.6595834  58.2220337  10.4392101  61.6237877  57.3581803   9.3757215
  61.2946981  57.6741645  10.0135318  70.0582978  47.2189257  12.5350747
  69.4151296  47.0686904  13.1035886  69.7182385  46.9731603  11.7699852
  69.9128055  47.1601380  12.5053762  74.8110452  51.6304568  14.8671129
  75.1638062  51.2034291  15.5416928  73.9525253  51.5455411  14.9972205
  74.7359896  51.5549309  14.9866139  63.5094137  54.2612088  12.9253976
  62.7906126  54.6776220  13.1926839  63.8806499  54.8266326  12.3745614
  63.4586068  54.4061369  12.8836783  72.8093717  54.8939937  18.8155971
  72.7891645  54.7123232  19.6690750  72.8572918  55.7651955  18.7915555
  72.8128358  54.9956475  18.9379266  70.7540047  61.4827129  24.7404448
  70.7135902  60.8376805  24.1549604  71.5663366  61.4263746  25.0529860
  70.8683201  61.3786095  24.7001397  76.2434512  46.7522980  15.7955441
  75.7365376  46.0452119  15.7276619  77.0401945  46.4216169  15.9256518
  76.2861751  46.5996131  15.8054436  72.1598528  53.2589592  11.6929105
  71.9312221  53.2822293  10.8507463  72.4196604  52.4347059  11.8124116
  72.1644716  53.1405672  11.5854303  66.4417756  55.1124065  21.2954205
  65.9296659  54.5045248  21.6539237  66.2697252  55.8280658  21.7628181
  66.3407393  55.1287364  21.4170429  65.2143290  51.7966138  12.9883301
  65.6900656  52.1583218  12.3533482  64.7131890  52.4522606  13.2683444
  65.2108649  51.9460327  12.9360042  70.3186826  53.0348310  23.7356461
  70.8758257  52.8062119  23.1034926  69.9947891  53.7953975  23.4591673
  70.3533237  53.1132146  23.6012958  58.1885535  56.4608506  19.2045057
  57.6412255  55.7909151  19.3225925  58.9777913  56.0938354  19.2688524
  58.2237719  56.3073492  19.2313758  68.0369944  56.1215963  24.7008468
  68.7881271  56.4367640  25.0148022  68.2292520  55.9195134  23.8742390
  68.1761358  56.1383345  24.6251864  74.8855234  52.2489529  11.9432264
  74.8849460  52.0938186  12.8016540  74.6811414  53.0952516  11.8873649
  74.8555012  52.3510150  12.0620203  56.9472505  55.6729314  16.3591080
  56.7694266  55.2205923  17.0845996  56.6591527  56.4755475  16.5429558
  56.8785458  55.7251872  16.4934583  72.6096086  56.9287031  15.5968470
  73.1049751  56.2110026  15.5572491  71.7995862  56.6257829  15.4822957
  72.5639979  56.7784677  15.5742196  58.6844975  58.2057037  13.4712839
  57.8190494  58.1942728  13.3595610  58.7843790  58.0187260  14.3183978
  58.5719142  58.1763099  13.5801784  74.6747905  59.6790719  18.2845599
  75.1002976  59.1565140  17.7316024  74.3104825  60.2771556  17.7634222
  74.6834507  59.6900946  18.1254609  64.3101984  67.9754936  17.0442945
  64.6248543  68.7891325  17.0520726  64.7195398  67.5905155  17.7125104
  64.4170082  68.0383638  17.1447036  73.3503489  65.0026296  26.7938829
  73.4600454  64.2134857  27.1495576  73.6794385  64.9132232  25.9913167
  73.4155895  64.8732149  26.7281219  68.1795999  48.1652453  21.5704851
  68.3123905  47.3683447  21.8985827  68.5641152  48.6918856  22.1503127
  68.2552328  48.1252370  21.7048354  71.9000450  63.1842917  21.3774449
  71.3521396  62.5600801  21.1094515  72.3613479  63.3737189  20.6618529
  71.8867660  63.1201967  21.2324880  71.2528354  45.0882780  18.1685945
  70.4474318  44.9780509  18.4853783  71.1235090  45.1895235  17.3115810
  71.1148487  45.0866450  18.0893985  74.7094315  51.2528271  18.7625642
  74.1257304  51.7537478  18.3503209  75.0298609  50.7457828  18.1289965
  74.6707490  51.2520107  18.6084149  67.2489114  50.1668866   9.0384316
  68.0704808  50.3367179   8.7966011  66.7858765  50.3216127   8.3150614
  67.3020276  50.2150599   8.8955961  65.8384446  48.1611629  19.8182745
  66.3828859  47.8202755  20.4087087  65.8921382  49.0197090  19.9604030
  65.9273565  48.2366888  19.9264619  61.6515005  61.9228045  16.6921553
  62.2559862  61.8823879  16.0635374  61.4442317  62.7699197  16.7225609
  61.7103902  62.0416047  16.6037670  71.4658777  64.1893990  17.9083790
  72.2857151  64.0456956  18.1700086  71.1852854  64.8140189  18.4500228
  71.5455520  64.2604342  18.0271730  56.8866287  60.9062662  16.5620476
  56.7890565  60.0958934  16.8710533  57.6695157  60.8854455  16.1766744
  56.9882423  60.7829752  16.5507339  75.7603481  72.1353323  23.8388836
  75.9323984  72.0259217  24.6874117  76.2972838  72.7807728  23.6020028
  75.8648485  72.2145324  23.9293933  74.8163804  68.2663632  21.3208764
  74.1235601  67.7960612  21.5669495  75.4324131  68.0401936  21.8950471
  74.8048334  68.1630764  21.4417916  77.6223027  66.2761528  27.0434916
  77.3076468  67.0461091  26.7804479  77.3012959  65.7131784  26.4587143
  77.5281946  66.3071797  26.9176266  77.2539532  68.8758779  25.7820131
  76.4439308  69.1816559  25.6709973  77.7314219  69.5964362  25.8972715
  77.2043011  69.0273380  25.7827202  77.1067289  66.5047718  20.7120575
  76.9150486  66.5202853  21.5619998  77.9565885  66.7011392  20.6887230
  77.2043011  66.5362069  20.8343869  72.2604507  66.9469047  22.0081842
  71.7246697  66.3349405  22.3242609  72.3222272  67.5217183  22.6615508
  72.1900140  66.9415975  22.1517268  80.2174922  61.1710079  21.3081486
  80.8468040  61.7070379  21.0302556  80.3860784  61.0787438  22.1595051
  80.3352716  61.2371441  21.3930014  80.0188837  65.9581274  23.5807897
  80.8462266  65.6866423  23.6366512  80.0396683  66.7542115  23.9371715
  80.1441687  66.0361028  23.6423080  76.5311107  67.3257592  23.4209835
  76.1396672  66.6790939  23.8565613  76.6996969  67.9169027  24.0404091
  76.4982017  67.3171859  23.5772541  71.6715535  70.2880087  21.2289525
  72.5341148  70.1875797  21.1426854  71.3407318  69.7074797  20.6675097
  71.7500731  70.1871714  21.1334930  75.0230718  65.2959487  24.5664965
  75.6483421  64.7521619  24.8394398  74.5681198  64.8154404  23.9972756
  75.0478978  65.1448968  24.5226559  72.2616054  69.0746948  23.9456567
  72.0918645  69.7348323  23.4004774  71.8182004  69.2853510  24.6669056
  72.1715388  69.2032930  23.9718197  81.2919410  68.5533618  23.7356461
  81.8490840  68.3247427  23.1034926  80.9680475  69.3139283  23.4591673
  81.3265820  68.6317454  23.6012958  79.0102527  71.6401271  24.7008468
  79.7613854  71.9552948  25.0148022  79.2025104  71.4380442  23.8742390
  79.1493941  71.6568653  24.6251864  79.1528583  63.6837761  21.5704851
  79.2856488  62.8868755  21.8985827  79.5373735  64.2104164  22.1503127
  79.2284911  63.6437678  21.7048354  76.8117029  63.6796936  19.8182745
  77.3561442  63.3388063  20.4087087  76.8653965  64.5382398  19.9604030
  76.9006149  63.7552196  19.9264619  51.2218902   7.5843225  12.1680100
  51.9285669   7.0895256  12.2967035  51.4106837   8.0252307  11.4382758
  51.3546807   7.5761576  12.0789146  48.3611196  11.0070762  10.0594175
  48.4494542  10.8196902  10.9072386  48.7900909  10.3608192   9.6599022
  48.4373298  10.8833770  10.1265927  45.9281656  10.2901922   9.0411838
  45.3652491   9.8774532   9.5651499  46.6902679  10.2154828   9.4604981
  45.9576104  10.2179322   9.1804838  48.4731255  10.4379781  12.7237959
  49.2571672  10.5510629  13.0893701  48.2727850   9.6120918  12.9196645
  48.5597281  10.3326500  12.8072345  48.6301649  12.3489883   6.3704415
  47.8316894  12.1089383   6.6278283  49.0787660  12.4004276   7.1171462
  48.5776260  12.3212274   6.5189339  47.6902386   6.0950328  14.2624603
  46.8975366   6.4093840  14.4477222  47.8051313   6.3101796  13.4245387
  47.5897796   6.1734165  14.1662938  53.9406326   7.3679509   9.2094753
  53.7044964   6.5367574   9.0906813  54.5849555   7.3165117   9.7949597
  54.0000997   7.2377197   9.2780646  50.6532002   4.2607732   9.8098089
  50.6480040   3.3887548   9.8140516  51.3592996   4.4595901   9.3367545
  50.7577006   4.1611606   9.7405125  45.9783951  12.3502131   7.3257427
  45.9027622  11.6810941   7.8808215  45.9073810  13.0519919   7.8398093
  45.9564558  12.3547038   7.4834275  45.3675585  15.7570450   5.7835428
  45.8571515  15.0581240   5.6011092  44.7959817  15.4594320   6.3711485
  45.3560115  15.6096674   5.8436469  51.5642589   8.3232520  14.7362218
  52.3777454   8.0517669  14.8967351  51.4037555   8.0240060  13.9322414
  51.6612537   8.2387446  14.6407624  48.1007346   2.0215313  13.3969616
  48.5706977   2.6457430  13.7837490  48.1469226   1.3532289  13.9562831
  48.1775222   2.0149994  13.5369688  51.5763833   9.3838810  10.0085059
  52.2143553   8.8899006   9.6747515  50.9337924   9.3116210   9.4237286
  51.5758059   9.2997818   9.8727414  51.6318089  10.0758618   6.6490416
  52.4210467   9.7247683   6.7692497  51.8061687  10.8895007   6.3867050
  51.7738371  10.1444475   6.6278284  44.7515257   5.2373031  11.6694997
  43.9010888   5.3744745  11.8052642  44.9143385   4.5036809  12.1142699
  44.6499121   5.1487132  11.7550596  48.5025704   7.3834644  11.6744495
  48.4621559   6.7384321  11.0889650  49.3149022   7.3271261  11.9869907
  48.6168858   7.2793611  11.6341444  51.0989145  10.9033812  13.7278876
  51.2086111  10.1142372  14.0835623  51.4280042  10.8139748  12.9253214
  51.1641551  10.7739664  13.6621266  49.6486107   9.0850432   8.3114496
  49.1007053   8.4608316   8.0434561  50.1099136   9.2744704   7.5958575
  49.6353317   9.0209483   8.1664927  53.2698908  26.3704726  -1.6743124
  52.5181808  25.9920264  -1.9027079  53.7184920  26.4023159  -2.4224314
  53.2248575  26.3190333  -1.8185622  62.1951485  23.1028533  12.1680100
  62.9018253  22.6080564  12.2967035  62.3839421  23.5437615  11.4382758
  62.3279391  23.0946884  12.0789146  58.2628160  28.7444364  -0.3046466
  58.6467539  29.3131262  -0.8441690  58.1987301  28.0193874  -0.7840650
  58.3101587  28.7219827  -0.4552603  61.7309590  18.8934052   5.2051296
  62.2765550  19.5719138   5.2645265  61.6726466  18.7521513   4.3452877
  61.8025504  18.9726053   5.0863356  54.8483665  26.3823118   0.5919648
  54.9494028  25.5723472   0.9016776  54.2525410  26.2880064  -0.0380673
  54.7756203  26.2488146   0.5445887  54.6884404  31.3000707   1.9934504
  55.3321860  31.7413871   2.3830663  55.0140660  30.4954133   1.9064763
  54.8316233  31.2465902   2.0379981  55.3904984  24.3112682  -2.6345634
  55.7120825  24.8517889  -3.2384326  56.0377080  23.7409453  -2.5023344
  55.5331039  24.3071857  -2.7038599  50.0707929  18.1181417   5.3599858
  49.9466626  18.7043862   5.9949677  50.7226214  17.6241612   5.6612133
  50.1481579  18.1320221   5.4985788  55.0966270  21.2943134   4.6387370
  55.7415273  20.8015577   4.3198318  55.3368047  21.4367920   5.4653448
  55.2276856  21.2420576   4.7136903  57.6352362  24.1398039   4.2894262
  57.9175605  23.3449445   4.0681018  58.3638522  24.6178627   4.3099323
  57.7841925  24.0932636   4.2597277  49.6066034  27.2829075   1.4928188
  49.1233612  28.0079565   1.4687772  50.4189352  27.5805205   1.6038346
  49.6556781  27.4331429   1.5055467  55.6780188  26.0761256   4.0978002
  55.1607129  25.7168671   3.4939310  56.3754579  25.5523430   4.1084069
  55.7045769  25.9458944   4.0108261  59.3343780  26.5256070  10.0594175
  59.4227125  26.3382210  10.9072386  59.7633492  25.8793499   9.6599022
  59.4105882  26.4019078  10.1265927  56.9014239  25.8087230   9.0411838
  56.3385074  25.3959840   9.5651499  57.6635263  25.7340136   9.4604981
  56.9308688  25.7364630   9.1804838  52.4610231  27.7985251   1.6448468
  53.1630810  27.2837240   1.7021224  52.3807714  28.1259402   2.4495343
  52.5533991  27.7699477   1.7721260  53.5089137  18.0360838  10.7728883
  53.6809641  17.9266733  11.6214164  54.0458495  18.6815243  10.5360075
  53.6134141  18.1152840  10.8633980  51.7861006  23.9891603   1.1534076
  52.6249906  24.2214536   1.2007837  51.8172775  23.1195914   1.0841111
  51.9142724  23.8948549   1.1498721  52.4113709  24.4092478   5.4547381
  52.9511934  24.2663609   6.1250754  51.7283656  24.8089229   5.8231408
  52.3905863  24.4472149   5.6081803  59.4463839  25.9565089  12.7237959
  60.2304256  26.0695937  13.0893701  59.2460433  25.1306226  12.9196645
  59.5329864  25.8511808  12.8072345  47.8150854  20.6292769   5.6081803
  47.5489270  19.8131886   5.7672793  47.8289419  20.6745925   4.7377318
  47.7775577  20.5149674   5.5035285  52.5649461  14.1671147   8.2548811
  51.8721257  13.6968127   8.5009542  53.1809788  13.9409452   8.8290518
  52.5533991  14.0638279   8.3757963  59.6034232  27.8675191   6.3704415
  58.8049478  27.6274691   6.6278283  60.0520244  27.9189584   7.1171462
  59.5508843  27.8397582   6.5189339  48.2244268  21.4151548   2.8893547
  48.0419841  21.3898434   2.0365839  48.9593937  21.8850486   2.9282456
  48.3058332  21.4812911   2.7691466  51.2890020  18.1336551   9.3975656
  52.0129992  18.1189582   9.8840551  51.3906156  18.8431907   8.8997624
  51.4108229  18.2361254   9.3954443  58.6634969  21.6135636  14.2624603
  57.8707950  21.9279148  14.4477222  58.7783896  21.8287104  13.4245387
  58.5630380  21.6919473  14.1662938  59.5918762  21.5155840   9.2009899
  60.1657624  20.8783084   9.3558463  59.5133566  21.5159922   8.3319557
  59.6651997  21.4220951   9.0956310  48.1915178  18.2945049   3.0392614
  48.7688681  18.1581500   3.6784859  47.4929240  17.8380833   3.2938198
  48.1736200  18.2067315   3.1714903  54.9482481  19.9479105   1.2531097
  54.6901725  19.1150840   1.2262396  55.0030963  20.1736718   0.4123597
  54.9182258  19.8576876   1.1251234  53.9217193  17.5016867   1.7395992
  53.3466784  17.6609036   2.3759953  53.5452869  16.8652276   1.2764442
  53.7820005  17.4314680   1.7650550  57.5890481  15.9740217   6.5988370
  57.2004914  15.5494434   5.9440561  56.9245180  16.2222366   7.1065397
  57.4337409  15.9478938   6.5776238  64.9138910  22.8864817   9.2094753
  64.6777547  22.0552882   9.0906813  65.5582139  22.8350424   9.7949597
  64.9733581  22.7562505   9.2780646  54.5637328  23.6760339  -0.0762511
  55.2011275  23.4372086   0.4689283  54.9892399  23.8797497  -0.8109350
  54.7213494  23.6711349  -0.1045354  49.2549970  25.9148675   3.8071793
  49.2954116  26.1863526   2.9791573  49.8144494  26.4390583   4.2229581
  49.3433316  26.0324430   3.7463681  55.3708683  12.1769044  13.9774963
  55.0562124  12.9468606  13.7144525  55.0498616  11.6139300  13.3927190
  55.2767602  12.2079312  13.8516313  65.9375330  22.6709266   5.2723047
  65.6321147  23.4037323   5.6336363  65.2181546  22.2647195   4.9915833
  65.7862673  22.7190999   5.2836184  56.9458800  24.1532761   1.6031275
  57.0197808  23.9907933   2.4573125  57.7628306  24.3422951   1.3591757
  57.0775158  24.1569504   1.6929301  50.7064556  24.4990624  -1.3674281
  49.8802674  24.7452361  -1.4940002  50.7676548  24.4202705  -0.5012223
  50.5938723  24.5235573  -1.2585337  55.4863386  27.1167504  -3.6655251
  55.7761684  26.7256486  -4.3896025  56.2166866  27.2984209  -3.2249976
  55.6370270  27.0861318  -3.7072444  56.0758131  21.9185250   7.4197879
  55.5769824  22.6301018   7.4982768  56.8858355  22.2385917   7.3816042
  56.1214237  22.0712099   7.4254448  53.4269301  29.0934887  -0.5995101
  53.2069597  28.8032241   0.1931566  53.2063823  28.4349842  -1.1277189
  53.3616895  28.9534595  -0.5606193  52.3386248  21.1808203   1.6660600
  52.0499497  20.5545674   2.2006328  53.2069596  21.1228491   1.7325281
  52.4246500  21.0795747   1.7551555  55.5937257  30.4664277  -1.8164409
  56.2461315  29.9340719  -1.5873383  54.8962866  30.1132929  -1.4296535
  55.5867975  30.3353800  -1.7252241  55.0025189  14.7766295  12.7160178
  54.1924964  15.0824074  12.6050020  55.4799875  15.4971877  12.8312762
  54.9528667  14.9280896  12.7167249  53.8616748  23.9912016   2.9643081
  53.3397502  24.1312307   3.6494945  54.2490769  23.2322680   3.1545198
  53.8420449  23.8997539   3.0944157  51.3369221  20.3128845   7.5859580
  51.8490318  20.5913098   6.9368340  51.0505563  21.0518139   7.9522393
  51.3704084  20.4631199   7.5449458  54.8552946  12.4055234   7.6460622
  54.6636143  12.4210368   8.4960045  55.7051542  12.6018908   7.6227276
  54.9528668  12.4369585   7.7683916  49.2399859  14.9346215   5.6244438
  49.0985351  14.0830156   5.7488946  49.5240422  14.9774876   4.8006644
  49.2607705  14.8145965   5.5212062  63.2886500  23.4796665   3.5575708
  63.1500860  24.1777710   4.0624450  62.5086498  23.3245321   3.2011889
  63.1529727  23.5596831   3.5801982  61.6264585  19.7793040   9.8098089
  61.6212624  18.9072856   9.8140516  62.3325579  19.9781209   9.3367545
  61.7309589  19.6796914   9.7405125  55.3535479  19.5070024   9.1811909
  55.4978854  20.0871232   8.5455019  55.7011127  19.8846320   9.8861764
  55.4262940  19.6490728   9.1910904  57.5255396  18.7060192   6.9637041
  56.7778710  18.8991207   6.5585319  57.6796921  17.8805412   6.7261162
  57.4377824  18.6125304   6.8682447  54.4263234  27.6972796   6.0472936
  54.5752797  27.1375711   5.3946341  55.2063236  27.7764797   6.4305455
  54.5637327  27.6258361   6.0069885  56.9516534  27.8687438   7.3257427
  56.8760205  27.1996249   7.8808215  56.8806393  28.5705227   7.8398093
  56.9297141  27.8732346   7.4834275  57.7657173  12.6010743   7.8532445
  58.2229787  13.3334717   7.9805237  57.8413502  12.1777208   8.6119700
  57.8448143  12.6467981   7.9833521  50.0090164  12.8476563   8.9421888
  49.4732354  12.2356921   9.2582656  50.0707929  13.4224699   9.5955555
  49.9385797  12.8423490   9.0857315  57.6086781  26.3888437  -1.8418967
  58.3736672  26.1198081  -2.1636303  57.5064871  25.9038448  -1.1248904
  57.7068277  26.2778002  -1.7839139  55.6439551  14.5912847   4.6974269
  54.8535626  14.4104307   5.0191604  56.0400174  13.8139799   4.6804563
  55.5856427  14.4500308   4.7426817  61.0283237  22.2255277   2.4233715
  60.3528239  21.9940509   2.9247102  61.0375613  21.6176460   1.7975820
  60.9301742  22.1014202   2.4049867  58.1577381  17.0673106   9.1797768
  58.0936522  17.9283062   9.0517904  58.2974569  16.7505099   8.3793319
  58.1692851  17.1473273   9.0425980  56.8396475  19.7605245   3.3213970
  56.4158724  19.9609744   2.5852989  56.6641330  18.9134093   3.4338270
  56.7507356  19.6654027   3.2287661  56.3408169  31.2755758   5.7835428
  56.8304099  30.5766547   5.6011092  55.7692401  30.9779628   6.3711485
  56.3292699  31.1281982   5.8436469  62.5375172  23.8417828  14.7362218
  63.3510037  23.5702976  14.8967351  62.3770138  23.5425368  13.9322414
  62.6345121  23.7572754  14.6407624  59.8147334  14.5251485   7.6757607
  60.0289304  13.8862399   7.1220961  59.1981233  14.9697309   7.2465468
  59.7552663  14.4961628   7.5308038  61.2252002  27.4470233  -0.8788172
  60.8331794  27.1436948  -1.5965306  61.3805074  28.2839323  -1.0683219
  61.1905592  27.5254070  -1.0131675  61.9786422  16.1340550   8.6140914
  61.1663104  15.8266440   8.6954087  62.4376357  15.6539550   9.1783626
  61.9266807  16.0177042   8.7095508  59.0739930  17.5400621  13.3969616
  59.5439561  18.1642738  13.7837490  59.1201810  16.8717597  13.9562831
  59.1507805  17.5335302  13.5369688  62.5496416  24.9024118  10.0085059
  63.1876137  24.4084314   9.6747515  61.9070508  24.8301518   9.4237286
  62.5490643  24.8183126   9.8727414  57.9660578   7.0717594   8.2421532
  58.5953696   7.6077894   7.9642603  58.1346441   6.9794953   9.0935098
  58.0838373   7.1378957   8.3270061  57.7674493  11.8588789  10.5147944
  58.5947923  11.5873938  10.5706558  57.7882339  12.6549631  10.8711762
  57.8927343  11.9368543  10.5763127  62.6050673  25.5943926   6.6490416
  63.3943051  25.2432991   6.7692497  62.7794271  26.4080315   6.3867050
  62.7470954  25.6629783   6.6278284  52.3443983  19.0052652   3.7018205
  51.5031990  18.9056526   3.9097098  52.5533991  19.7748132   4.0532525
  52.2508676  19.1044695   3.7845520  56.1560648  16.9334051   2.9515802
  55.8523786  16.3790039   3.5526210  55.4540069  17.1126261   2.4643836
  56.0076858  16.8778833   2.9685508  54.2178999  24.1483772   7.6587900
  54.1099354  24.1585834   8.5249958  54.4274781  24.9738552   7.4692854
  54.2329110  24.2724847   7.7591992  52.2352791  21.3996414   5.1209838
  51.6440724  22.0405912   5.0912853  52.9973815  21.8234031   5.0941137
  52.2601052  21.5572253   5.1124985  52.6313414  12.5598412   5.7877855
  53.0914895  12.6337341   6.5252979  52.6769521  13.3579666   5.4377676
  52.7063969  12.6892559   5.8450612  54.2796764  13.2265107  10.3549882
  53.8882329  12.5798454  10.7905660  54.4482626  13.8176542  10.9744138
  54.2467674  13.2179375  10.5112588  61.9942307  26.8505726   2.5541862
  61.7961996  27.3396540   1.8598073  61.3730018  27.0546967   3.1325995
  61.8729872  26.9522264   2.5365085  49.4201192  16.1887603   8.1629571
  50.2826805  16.0883312   8.0766901  49.0892975  15.6082312   7.6015144
  49.4986388  16.0879229   8.0674977  63.9116109  20.4169878   8.0887110
  64.6350308  19.9642405   7.9098130  63.6466072  20.6974544   7.3059438
  63.9797383  20.3920847   7.9465826  52.7802978  15.0130052   4.8239990
  52.1556048  15.0248444   4.2165942  52.4448572  15.4890227   5.4731230
  52.6388469  15.0848569   4.8296558  49.4928653  23.0730512   6.2643754
  48.9628578  22.3822951   6.3138729  49.7653746  23.0640697   5.4356462
  49.4553375  22.9697644   6.1491170  59.6934899  20.5153756   6.2382125
  59.0791892  19.9711807   6.5330761  60.2102184  20.0017993   5.7587942
  59.6790561  20.3590165   6.2106354  58.9331196  21.5858026   3.9726424
  58.5058804  20.9607745   3.5391859  58.9256140  21.3032948   4.7985431
  58.8690337  21.4510807   4.0306252  52.0493723  16.6223199   7.0414858
  52.2087210  15.8666524   7.4466580  51.8686617  17.1714139   7.6955596
  52.0459082  16.5917013   7.1977564  55.7247841  20.7558339  11.6694997
  54.8743471  20.8930053  11.8052642  55.8875968  20.0222117  12.1142699
  55.6231704  20.6672440  11.7550596  54.9632591  17.7058109   5.8648601
  54.1324521  17.8731927   5.6583849  54.9084108  17.3294060   6.6497487
  54.8322006  17.6747840   5.9497130  52.7716374  11.1967002  11.5005012
  53.3969078  10.6529135  11.7734444  52.3166854  10.7161919  10.9312802
  52.7964635  11.0456483  11.4566606  58.1744813  23.8013661   7.2175554
  57.6669904  24.3549508   7.6616184  57.8771459  23.8621951   6.3994329
  58.0549698  23.8919973   7.1624011  57.4187298  28.7338220   4.1232561
  57.1952953  27.9757049   4.4916587  56.9297142  28.7636241   3.4013001
  57.3130747  28.6260444   4.0709302  61.5311958  16.3132760   5.7496018
  61.5109885  16.1316055   6.6030797  61.5791159  17.1844778   5.7255602
  61.5346599  16.4149298   5.8719313  59.4758288  22.9019952  11.6744495
  59.4354143  22.2569629  11.0889650  60.2881606  22.8456569  11.9869907
  59.5901441  22.7978919  11.6341444  56.0665755  28.9538678   1.5769646
  55.6526154  28.2912808   1.1873487  56.7513129  29.1016536   1.0565340
  56.1064127  28.8779336   1.4426143  59.4331049  28.1128763   2.3293262
  59.0347333  28.2231033   1.5614082  58.8182269  28.3210829   2.9119822
  59.2829939  28.1602331   2.3024561  55.1635996  16.5316888   8.2294252
  54.6514899  15.9238071   8.5879284  54.9915493  17.2473481   8.6968228
  55.0625633  16.5480188   8.3510476  50.0101711  14.9754464  10.8796614
  49.8404301  15.6355838  10.3344821  49.5667661  15.1861025  11.6009103
  49.9201045  15.1040446  10.9058244  59.0405067  14.4541133  10.6696508
  59.5976497  14.2254942  10.0374973  58.7166132  15.2146799  10.3931720
  59.0751477  14.5324970  10.5353005  46.9103776  17.8801329   6.1385104
  46.3630495  17.2101975   6.2565972  47.6996154  17.5131177   6.2028571
  46.9455959  17.7266316   6.1653804  56.7588184  17.5408786  11.6348515
  57.5099511  17.8560463  11.9488069  56.9510760  17.3387957  10.8082437
  56.8979598  17.5576168  11.5591911  63.3966145  21.0983542   5.2185646
  63.8221217  20.5757964   4.6656071  63.0323065  21.6964379   4.6974269
  63.4052748  21.1093769   5.0594656  53.0320225  29.3947759   3.9782991
  53.3466784  30.2084148   3.9860773  53.4413638  29.0097978   4.6465151
  53.1388323  29.4576462   4.0787083  59.9844744  24.8117806   1.5486803
  60.4555923  25.5258069   1.7176789  60.3204923  24.2116556   2.0846673
  60.1039860  24.8289270   1.6519179  62.0721729  26.4219120  13.7278876
  62.1818695  25.6327680  14.0835623  62.4012626  26.3325056  12.9253214
  62.1374135  26.2924972  13.6621266  56.9014239   9.5845277   8.5044898
  57.0342145   8.7876270   8.8325874  57.2859392  10.1111680   9.0843174
  56.9770568   9.5445193   8.6388401  60.6218691  24.6035740   8.3114496
  60.0739637  23.9793624   8.0434561  61.0831720  24.7930012   7.5958575
  60.6085900  24.5394790   8.1664927  54.5602686   9.5804452   6.7522792
  55.1047099   9.2395579   7.3427134  54.6139622  10.4389913   6.8944077
  54.6491806   9.6559711   6.8604665  50.3733245  23.3420868   3.6261600
  50.9778102  23.3016702   2.9975421  50.1660558  24.1892020   3.6565656
  50.4322142  23.4608870   3.5377716  60.1877017  25.6086813   4.8423837
  61.0075391  25.4649779   5.1040132  59.9071095  26.2333012   5.3840275
  60.2673760  25.6797165   4.9611777  45.6084527  22.3255485   3.4960523
  45.5108805  21.5151757   3.8050580  46.3913397  22.3047279   3.1106791
  45.7100664  22.2022576   3.4847386  73.1684069  38.6213841  12.1680100
  73.8750836  38.1265872  12.2967035  73.3572004  39.0622923  11.4382758
  73.3011974  38.6132192  12.0789146  72.7042173  34.4119360   5.2051296
  73.2498133  35.0904446   5.2645265  72.6459050  34.2706820   4.3452877
  72.7758088  34.4911361   5.0863356  59.0181293  37.9228712   0.2171982
  58.7831477  37.0896365   0.1104251  59.1566933  38.2033378  -0.5966817
  59.0036955  37.8412216   0.0814337  61.3171380  30.0914443   3.1156289
  60.6976412  29.5007090   2.9466304  61.2155244  30.6825878   2.4820613
  61.2109055  30.0918525   2.9961279  61.0440513  33.6366725   5.3599858
  60.9199210  34.2229170   5.9949677  61.6958797  33.1426920   5.6612133
  61.1214162  33.6505529   5.4985788  66.0698854  36.8128442   4.6387370
  66.7147857  36.3200885   4.3198318  66.3100631  36.9553228   5.4653448
  66.2009439  36.7605884   4.7136903  68.6084945  39.6583347   4.2894262
  68.8908188  38.8634753   4.0681018  69.3371106  40.1363935   4.3099323
  68.7574509  39.6117944   4.2597277  60.5798617  42.8014383   1.4928188
  60.0966195  43.5264873   1.4687772  61.3921935  43.0990513   1.6038346
  60.6289365  42.9516737   1.5055467  66.6512771  41.5946564   4.0978002
  66.1339713  41.2353979   3.4939310  67.3487162  41.0708738   4.1084069
  66.6778352  41.4644252   4.0108261  70.3076363  42.0441378  10.0594175
  70.3959709  41.8567518  10.9072386  70.7366076  41.3978807   9.6599022
  70.3838466  41.9204386  10.1265927  67.8746823  41.3272538   9.0411838
  67.3117658  40.9145148   9.5651499  68.6367846  41.2525443   9.4604981
  67.9041272  41.2549938   9.1804838  63.4342814  43.3170559   1.6448468
  64.1363394  42.8022548   1.7021224  63.3540298  43.6444710   2.4495343
  63.5266575  43.2884785   1.7721260  64.4821721  33.5546146  10.7728883
  64.6542225  33.4452041  11.6214164  65.0191079  34.2000551  10.5360075
  64.5866725  33.6338148  10.8633980  62.7593590  39.5076911   1.1534076
  63.5982489  39.7399844   1.2007837  62.7905359  38.6381222   1.0841111
  62.8875307  39.4133857   1.1498721  63.3846293  39.9277786   5.4547381
  63.9244518  39.7848917   6.1250754  62.7016239  40.3274537   5.8231408
  63.3638447  39.9657457   5.6081803  70.4196422  41.4750397  12.7237959
  71.2036839  41.5881245  13.0893701  70.2193017  40.6491534  12.9196645
  70.5062448  41.3697116  12.8072345  58.7883438  36.1478077   5.6081803
  58.5221853  35.3317194   5.7672793  58.8022002  36.1931232   4.7377318
  58.7508160  36.0334982   5.5035285  63.5382044  29.6856455   8.2548811
  62.8453841  29.2153435   8.5009542  64.1542372  29.4594760   8.8290518
  63.5266574  29.5823587   8.3757963  70.5766816  43.3860499   6.3704415
  69.7782062  43.1459999   6.6278283  71.0252827  43.4374892   7.1171462
  70.5241427  43.3582890   6.5189339  59.1976852  36.9336856   2.8893547
  59.0152425  36.9083742   2.0365839  59.9326521  37.4035794   2.9282456
  59.2790915  36.9998219   2.7691466  62.2622603  33.6521859   9.3975656
  62.9862576  33.6374890   9.8840551  62.3638740  34.3617214   8.8997624
  62.3840812  33.7546562   9.3954443  69.6367553  37.1320944  14.2624603
  68.8440533  37.4464456  14.4477222  69.7516480  37.3472412  13.4245387
  69.5362963  37.2104781  14.1662938  70.5651345  37.0341148   9.2009899
  71.1390207  36.3968392   9.3558463  70.4866149  37.0345230   8.3319557
  70.6384580  36.9406259   9.0956310  59.1647762  33.8130357   3.0392614
  59.7421265  33.6766808   3.6784859  58.4661824  33.3566141   3.2938198
  59.1468783  33.7252623   3.1714903  65.9215064  35.4664413   1.2531097
  65.6634308  34.6336148   1.2262396  65.9763547  35.6922026   0.4123597
  65.8914842  35.3762184   1.1251234  64.8949776  33.0202175   1.7395992
  64.3199368  33.1794344   2.3759953  64.5185453  32.3837584   1.2764442
  64.7552589  32.9499988   1.7650550  68.5623065  31.4925524   6.5988370
  68.1737498  31.0679742   5.9440561  67.8977763  31.7407674   7.1065397
  68.4069993  31.4664246   6.5776238  54.6406595  32.6642250  -0.2459568
  54.7266847  32.2874118   0.5353962  55.2682393  32.2902696  -0.7239609
  54.7463146  32.5527732  -0.2014090  75.8871493  38.4050125   9.2094753
  75.6510131  37.5738190   9.0906813  76.5314722  38.3535732   9.7949597
  75.9466164  38.2747813   9.2780646  60.2282554  41.4333983   3.8071793
  60.2686699  41.7048834   2.9791573  60.7877078  41.9575891   4.2229581
  60.3165900  41.5509738   3.7463681  66.3441267  27.6954351  13.9774963
  66.0294708  28.4653914  13.7144525  66.0231199  27.1324607  13.3927190
  66.2500186  27.7264620  13.8516313  76.9107914  38.1894574   5.2723047
  76.6053731  38.9222631   5.6336363  76.1914130  37.7832503   4.9915833
  76.7595256  38.2376307   5.2836184  67.9191383  39.6718069   1.6031275
  67.9930392  39.5093241   2.4573125  68.7360890  39.8608259   1.3591757
  68.0507742  39.6754811   1.6929301  61.6797140  40.0175932  -1.3674281
  60.8535258  40.2637669  -1.4940002  61.7409131  39.9388013  -0.5012223
  61.5671307  40.0420881  -1.2585337  67.0490714  37.4370558   7.4197879
  66.5502408  38.1486326   7.4982768  67.8590939  37.7571225   7.3816042
  67.0946821  37.5897407   7.4254448  63.3118832  36.6993511   1.6660600
  63.0232080  36.0730982   2.2006328  64.1802180  36.6413799   1.7325281
  63.3979084  36.5981055   1.7551555  65.9757772  30.2951603  12.7160178
  65.1657548  30.6009382  12.6050020  66.4532459  31.0157185  12.8312762
  65.9261251  30.4466204  12.7167249  64.8349332  39.5097323   2.9643081
  64.3130085  39.6497615   3.6494945  65.2223352  38.7507988   3.1545198
  64.8153033  39.4182847   3.0944157  62.3101804  35.8314153   7.5859580
  62.8222901  36.1098406   6.9368340  62.0238147  36.5703447   7.9522393
  62.3436667  35.9816507   7.5449458  59.3968711  30.3384345  -2.1176684
  59.4984847  31.1410506  -1.7895708  60.1924597  30.1371681  -2.4153603
  59.5296616  30.4270243  -2.1141328  65.8285530  27.9240541   7.6460622
  65.6368727  27.9395676   8.4960045  66.6784126  28.1204216   7.6227276
  65.9261252  27.9554893   7.7683916  60.2132443  30.4531523   5.6244438
  60.0717934  29.6015464   5.7488946  60.4973006  30.4960184   4.8006644
  60.2340289  30.3331273   5.5212062  74.2619084  38.9981972   3.5575708
  74.1233443  39.6963018   4.0624450  73.4819082  38.8430629   3.2011889
  74.1262311  39.0782139   3.5801982  72.5997169  35.2978348   9.8098089
  72.5945207  34.4258164   9.8140516  73.3058163  35.4966517   9.3367545
  72.7042173  35.1982222   9.7405125  66.3268062  35.0255332   9.1811909
  66.4711438  35.6056540   8.5455019  66.6743711  35.4031628   9.8861764
  66.3995524  35.1676036   9.1910904  68.4987980  34.2245500   6.9637041
  67.7511294  34.4176514   6.5585319  68.6529505  33.3990720   6.7261162
  68.4110407  34.1310611   6.8682447  65.3995817  43.2158104   6.0472936
  65.5485381  42.6561019   5.3946341  66.1795819  43.2950105   6.4305455
  65.5369911  43.1443669   6.0069885  67.9249118  43.3872746   7.3257427
  67.8492789  42.7181557   7.8808215  67.8538977  44.0890535   7.8398093
  67.9029725  43.3917654   7.4834275  68.7389757  28.1196051   7.8532445
  69.1962371  28.8520025   7.9805237  68.8146085  27.6962516   8.6119700
  68.8180726  28.1653289   7.9833521  60.9822748  28.3661871   8.9421888
  60.4464937  27.7542229   9.2582656  61.0440513  28.9410007   9.5955555
  60.9118381  28.3608798   9.0857315  66.6172135  30.1098155   4.6974269
  65.8268209  29.9289615   5.0191604  67.0132757  29.3325107   4.6804563
  66.5589011  29.9685616   4.7426817  72.0015821  37.7440585   2.4233715
  71.3260823  37.5125817   2.9247102  72.0108197  37.1361768   1.7975820
  71.9034325  37.6199510   2.4049867  69.1309965  32.5858414   9.1797768
  69.0669106  33.4468370   9.0517904  69.2707153  32.2690407   8.3793319
  69.1425435  32.6658580   9.0425980  67.8129059  35.2790553   3.3213970
  67.3891308  35.4795052   2.5852989  67.6373914  34.4319401   3.4338270
  67.7239939  35.1839335   3.2287661  67.3140752  46.7941066   5.7835428
  67.8036682  46.0951855   5.6011092  66.7424984  46.4964936   6.3711485
  67.3025282  46.6467290   5.8436469  63.1011504  35.7742605  -1.2458057
  63.2576123  35.7089407  -0.3902065  63.4412097  36.5491157  -1.4579377
  63.1744739  35.8791803  -1.1503463  73.5107756  39.3603136  14.7362218
  74.3242621  39.0888284  14.8967351  73.3502722  39.0610676  13.9322414
  73.6077704  39.2758062  14.6407624  70.7879918  30.0436793   7.6757607
  71.0021887  29.4047707   7.1220961  70.1713817  30.4882617   7.2465468
  70.7285247  30.0146936   7.5308038  59.6745765  32.9577555  -0.9297290
  60.0544730  33.3762100  -1.5937022  59.1001130  33.5391011  -0.6228446
  59.6457090  33.1055414  -0.9820549  72.9519006  31.6525858   8.6140914
  72.1395687  31.3451748   8.6954087  73.4108940  31.1724858   9.1783626
  72.8999390  31.5362350   8.7095508  70.0472513  33.0585929  13.3969616
  70.5172144  33.6828046  13.7837490  70.0934393  32.3902905  13.9562831
  70.1240389  33.0520610  13.5369688  73.5229000  40.4209426  10.0085059
  74.1608720  39.9269621   9.6747515  72.8803091  40.3486826   9.4237286
  73.5223226  40.3368434   9.8727414  68.9393162  22.5902902   8.2421532
  69.5686280  23.1263202   7.9642603  69.1079025  22.4980261   9.0935098
  69.0570957  22.6564265   8.3270061  68.7407077  27.3774097  10.5147944
  69.5680506  27.1059246  10.5706558  68.7614923  28.1734939  10.8711762
  68.8659927  27.4553851  10.5763127  73.5783256  41.1129234   6.6490416
  74.3675634  40.7618299   6.7692497  73.7526854  41.9265623   6.3867050
  73.7203538  41.1815091   6.6278284  63.3176567  34.5237960   3.7018205
  62.4764573  34.4241834   3.9097098  63.5266575  35.2933440   4.0532525
  63.2241259  34.6230003   3.7845520  60.7952134  32.1457497   1.5302955
  60.4008831  32.2200509   0.7553065  60.2392251  32.5315443   2.0811317
  60.6554946  32.2139271   1.4970615  67.1293232  32.4519359   2.9515802
  66.8256369  31.8975347   3.5526210  66.4272652  32.6311569   2.4643836
  66.9809441  32.3964141   2.9685508  65.1911583  39.6669080   7.6587900
  65.0831938  39.6771142   8.5249958  65.4007364  40.4923860   7.4692854
  65.2061694  39.7910155   7.7591992  63.2085375  36.9181722   5.1209838
  62.6173308  37.5591220   5.0912853  63.9706398  37.3419339   5.0941137
  63.2333635  37.0757561   5.1124985  63.6045997  28.0783720   5.7877855
  64.0647479  28.1522649   6.5252979  63.6502104  28.8764974   5.4377676
  63.6796553  28.2077867   5.8450612  65.2529347  28.7450415  10.3549882
  64.8614912  28.0983762  10.7905660  65.4215210  29.3361850  10.9744138
  65.2200257  28.7364683  10.5112588  60.3933775  31.7072911   8.1629571
  61.2559388  31.6068620   8.0766901  60.0625558  31.1267620   7.6015144
  60.4718972  31.6064537   8.0674977  74.8848693  35.9355186   8.0887110
  75.6082892  35.4827712   7.9098130  74.6198655  36.2159852   7.3059438
  74.9529966  35.9106155   7.9465826  63.7535561  30.5315360   4.8239990
  63.1288631  30.5433752   4.2165942  63.4181156  31.0075535   5.4731230
  63.6121053  30.6033877   4.8296558  60.4661237  38.5915820   6.2643754
  59.9361161  37.9008259   6.3138729  60.7386330  38.5826005   5.4356462
  60.4285959  38.4882951   6.1491170  70.6667482  36.0339064   6.2382125
  70.0524475  35.4897115   6.5330761  71.1834767  35.5203301   5.7587942
  70.6523145  35.8775473   6.2106354  69.9063779  37.1043334   3.9726424
  69.4791387  36.4793053   3.5391859  69.8988724  36.8218256   4.7985431
  69.8422921  36.9696115   4.0306252  63.0226307  32.1408507   7.0414858
  63.1819793  31.3851832   7.4466580  62.8419200  32.6899447   7.6955596
  63.0191666  32.1102321   7.1977564  55.7457079  35.2643584   3.6212102
  55.6400528  35.2190428   2.7564186  54.9957299  35.6097364   3.9026387
  55.6192682  35.3084492   3.5349432  64.5150811  26.7082907   3.5674702
  64.5549183  27.2092114   4.2809410  63.6900476  26.7993301   3.2980625
  64.3990337  26.7964723   3.6325241  66.6980424  36.2743647  11.6694997
  65.8476055  36.4115361  11.8052642  66.8608552  35.5407425  12.1142699
  66.5964288  36.1857748  11.7550596  65.9365175  33.2243417   5.8648601
  65.1057104  33.3917235   5.6583849  65.8816692  32.8479368   6.6497487
  65.8054590  33.1933148   5.9497130  63.7448958  26.7152310  11.5005012
  64.3701661  26.1714443  11.7734444  63.2899438  26.2347227  10.9312802
  63.7697219  26.5641791  11.4566606  69.1477397  39.3198969   7.2175554
  68.6402488  39.8734816   7.6616184  68.8504043  39.3807259   6.3994329
  69.0282282  39.4105280   7.1624011  60.8454429  34.5633960  -3.0079158
  61.3546658  35.1598468  -2.6267853  61.3188701  34.2959934  -3.6902738
  60.9897805  34.6119776  -3.0524635  63.2044961  31.1990219  -0.1405978
  62.4856950  31.6154351   0.1266886  63.5757323  31.7644458  -0.6914339
  63.1536892  31.3439500  -0.1823171  72.5044541  31.8318068   5.7496018
  72.4842469  31.6501363   6.6030797  72.5523742  32.7030086   5.7255602
  72.5079182  31.9334606   5.8719313  70.4490871  38.4205260  11.6744495
  70.4086726  37.7754937  11.0889650  71.2614189  38.3641877  11.9869907
  70.5634025  38.3164227  11.6341444  66.1368580  32.0502196   8.2294252
  65.6247483  31.4423379   8.5879284  65.9648076  32.7658789   8.6968228
  66.0358217  32.0665496   8.3510476  60.9834295  30.4939772  10.8796614
  60.8136885  31.1541146  10.3344821  60.5400245  30.7046333  11.6009103
  60.8933628  30.6225754  10.9058244  70.0137650  29.9726441  10.6696508
  70.5709080  29.7440250  10.0374973  69.6898715  30.7332107  10.3931720
  70.0484060  30.0510278  10.5353005  57.8836359  33.3986637   6.1385104
  57.3363079  32.7287283   6.2565972  58.6728737  33.0316485   6.2028571
  57.9188543  33.2451624   6.1653804  67.7320768  33.0594094  11.6348515
  68.4832095  33.3745771  11.9488069  67.9243344  32.8573265  10.8082437
  67.8712182  33.0761476  11.5591911  56.6423329  32.6107445   3.2931127
  56.4645090  32.1584054   4.0186042  56.3542351  33.4133606   3.4769604
  56.5736282  32.6630003   3.4274630  58.3795799  35.1435169   0.4052886
  57.5141318  35.1320859   0.2935657  58.4794614  34.9565392   1.2524025
  58.2669965  35.1141230   0.5141830  74.3698729  36.6168850   5.2185646
  74.7953800  36.0943272   4.6656071  74.0055648  37.2149687   4.6974269
  74.3785331  36.6279077   5.0594656  64.0052808  44.9133067   3.9782991
  64.3199367  45.7269456   3.9860773  64.4146222  44.5283286   4.6465151
  64.1120906  44.9761770   4.0787083  73.0454313  41.9404427  13.7278876
  73.1551278  41.1512988  14.0835623  73.3745209  41.8510364  12.9253214
  73.1106718  41.8110280  13.6621266  67.8746823  25.1030585   8.5044898
  68.0074729  24.3061578   8.8325874  68.2591976  25.6296988   9.0843174
  67.9503152  25.0630501   8.6388401  71.5951274  40.1221048   8.3114496
  71.0472220  39.4978932   8.0434561  72.0564303  40.3115320   7.5958575
  71.5818484  40.0580098   8.1664927  65.5335270  25.0989760   6.7522792
  66.0779683  24.7580887   7.3427134  65.5872206  25.9575221   6.8944077
  65.6224389  25.1745019   6.8604665  61.3465829  38.8606176   3.6261600
  61.9510686  38.8202010   2.9975421  61.1393141  39.7077328   3.6565656
  61.4054726  38.9794178   3.5377716  71.1609601  41.1272121   4.8423837
  71.9807974  40.9835087   5.1040132  70.8803678  41.7518320   5.3840275
  71.2406344  41.1982473   4.9611777  56.5817111  37.8440793   3.4960523
  56.4841389  37.0337065   3.8050580  57.3645981  37.8232587   3.1106791
  56.6833247  37.7207883   3.4847386  75.4554305  49.0731454  10.7728883
  75.6274808  48.9637348  11.6214164  75.9923662  49.7185859  10.5360075
  75.5599309  49.1523456  10.8633980  74.5114628  45.2041763   8.2548811
  73.8186425  44.7338743   8.5009542  75.1274955  44.9780068   8.8290518
  74.4999158  45.1008895   8.3757963  77.3173850  43.2139659  13.9774963
  77.0027292  43.9839222  13.7144525  76.9963783  42.6509915  13.3927190
  77.2232770  43.2449928  13.8516313  76.9490356  45.8136910  12.7160178
  76.1390132  46.1194690  12.6050020  77.4265043  46.5342493  12.8312762
  76.8993835  45.9651512  12.7167249  76.8018113  43.4425849   7.6460622
  76.6101310  43.4580984   8.4960045  77.6516709  43.6389524   7.6227276
  76.8993835  43.4740201   7.7683916  71.9555331  43.8847178   8.9421888
  71.4197521  43.2727537   9.2582656  72.0173096  44.4595314   9.5955555
  71.8850964  43.8794106   9.0857315  81.0205097  48.5771237  13.3969616
  81.4904728  49.2013354  13.7837490  81.0666977  47.9088213  13.9562831
  81.0972973  48.5705918  13.5369688  79.9125746  38.1088210   8.2421532
  80.5418864  38.6448510   7.9642603  80.0811608  38.0165569   9.0935098
  80.0303540  38.1749573   8.3270061  79.7139660  42.8959405  10.5147944
  80.5413090  42.6244554  10.5706558  79.7347507  43.6920247  10.8711762
  79.8392511  42.9739159  10.5763127  76.2261931  44.2635723  10.3549882
  75.8347496  43.6169070  10.7905660  76.3947793  44.8547158  10.9744138
  76.1932841  44.2549991  10.5112588  71.3666359  47.2258218   8.1629571
  72.2291972  47.1253928   8.0766901  71.0358142  46.6452928   7.6015144
  71.4451555  47.1249845   8.0674977  74.7181542  42.2337618  11.5005012
  75.3434245  41.6899751  11.7734444  74.2632021  41.7532535  10.9312802
  74.7429802  42.0827099  11.4566606  71.9566878  46.0125079  10.8796614
  71.7869469  46.6726454  10.3344821  71.5132828  46.2231641  11.6009103
  71.8666212  46.1411062  10.9058244  80.9870234  45.4911749  10.6696508
  81.5441664  45.2625558  10.0374973  80.6631299  46.2517414  10.3931720
  81.0216644  45.5695586  10.5353005  78.7053351  48.5779402  11.6348515
  79.4564678  48.8931079  11.9488069  78.8975928  48.3758573  10.8082437
  78.8444765  48.5946784  11.5591911  78.8479407  40.6215893   8.5044898
  78.9807312  39.8246886   8.8325874  79.2324559  41.1482296   9.0843174
  78.9235735  40.5815809   8.6388401  76.5067853  40.6175068   6.7522792
  77.0512266  40.2766194   7.3427134  76.5604789  41.4760529   6.8944077
  76.5956973  40.6930327   6.8604665   1.4524820  63.1664563  49.7971887
   1.4218824  64.0209200  49.9690156   2.0506169  62.8659856  50.3558030
   1.5361978  63.2481060  49.9046689   3.3837186  68.6655608  53.2535266
   2.5534889  68.8766252  53.4168683   3.3346438  67.8392663  52.9777550
   3.2543922  68.5745215  53.2372632   2.8791144  61.3126009  57.0485687
   2.0419566  61.3828196  57.2833282   2.8479375  61.3150504  56.1759990
   2.7509427  61.3236236  56.9545235   0.5598984  56.3768791  55.6329410
   1.2024893  56.4466895  56.2191325   0.8122005  55.7098014  55.1308952
   0.6921116  56.2895139  55.6456689   3.7745848  66.0535883  52.2819619
   4.4362282  65.4926551  52.1815528   3.1337260  65.5587913  52.6072310
   3.7774715  65.8972292  52.3151959   1.8901135  65.9102931  49.8601212
   2.2209352  66.4430571  49.2541307   2.4634223  65.9641819  50.5163163
   2.0234814  65.9972500  49.8678993   2.9980487  61.1513428  51.3641373
   2.7417051  60.3393369  51.1739256   3.8409800  61.1590995  51.1371561
   3.0846512  61.0325425  51.3026190   1.7042066  68.0907473  57.2628220
   1.3987883  68.8235530  57.6241536   0.9848282  67.6845402  56.9821007
   1.5529409  68.1389206  57.2741358   7.4043859  64.7300473  56.5896565
   7.3368359  64.7496433  55.7199151   7.3899521  65.5730801  56.8152235
   7.3922615  64.8574208  56.4949042   5.1902476  63.5044860  54.8643159
   5.7410397  62.8712929  55.1040251   5.1746591  64.0360252  55.5558663
   5.2687672  63.4893808  55.0022017   1.2879371  64.8700765  53.1368540
   1.2013346  65.0256191  53.9903319   0.8329851  65.5138840  52.7627945
   1.2082628  64.9876520  53.2075647   4.1209949  66.6500391  58.1092289
   4.1793072  67.0987039  58.8552265   3.4876416  67.0599203  57.6722369
   4.0361244  66.7774125  58.1544837   1.0731628  64.6716678  56.1957979
   0.8329851  63.8323093  56.2000406   1.5523635  64.7516845  56.9198753
   1.1083812  64.5598078  56.3032782   3.0736815  61.4518136  54.1487238
   2.8346585  61.4113970  53.3108023   3.2370716  62.2989288  54.2752959
   3.0627119  61.5710221  54.0440720   2.1118159  64.7994496  58.5822833
   2.7035999  65.4391746  58.6141031   2.5477154  64.1017532  58.8714900
   2.2636590  64.7912846  58.6303666   2.9339628  68.1078936  47.7041526
   3.3173234  68.8570293  47.9339623   2.1383741  68.3544756  47.4453515
   2.8733410  68.2548630  47.6999099   9.5609283  68.6090111  51.7664811
   9.2462724  69.2993590  52.1985233   9.0436225  68.5534893  51.0650312
   9.4373753  68.7024999  51.7261760   4.5945613  70.0913606  48.7365285
   5.3231774  69.9129561  48.2903441   4.6840506  70.9331686  48.9472463
   4.7152275  70.1897485  48.7018803  11.5331568  71.8954099  55.6329410
  12.1757476  71.9652203  56.2191325  11.7854589  71.2283321  55.1308952
  11.6653700  71.8080447  55.6456689   6.7682850  72.9891070  53.3440363
   6.0639177  72.5000256  53.5024282   6.8167825  73.0013545  52.4728807
   6.6712902  72.9180718  53.2379703   8.1516163  70.6098360  56.1017528
   8.5326674  69.9276531  56.4885402   7.3479447  70.3207962  55.9193192
   8.0892624  70.4665408  56.1321583   8.7872789  71.6520939  59.9137654
   9.5326381  71.4630749  59.5001080   8.3710093  72.1779177  59.3551510
   8.8357763  71.7023084  59.7702227   6.8323709  72.0803463  50.5834914
   7.5350062  71.8811211  50.1054872   6.5667898  71.3079405  50.8903758
   6.8970342  71.9366429  50.5580356   8.9783819  66.7184133  53.7131461
   9.0967387  67.1760596  52.9798763   8.8045994  65.9129394  53.4267678
   8.9702990  66.6677905  53.5632394   5.9461382  68.5734935  54.6550123
   5.0754940  68.5473656  54.6083432   6.2001724  68.4012127  53.8375968
   5.8554942  68.5445079  54.5270259   2.9710523  70.5841163  56.1123593
   2.4549011  69.8921355  56.2375172   2.4104452  71.2511941  56.0586192
   2.8117036  70.5804421  56.1229659   5.0402756  71.1234124  57.9416446
   4.6534509  71.1483155  58.7229976   4.5535694  70.5575802  57.4890962
   4.9115265  71.0429874  57.9904349   4.7059898  68.0101109  60.2326706
   5.3353016  68.5461409  59.9547776   4.8745761  67.9178468  61.0840271
   4.8237693  68.0762471  60.3175234   8.1983817  70.5436997  53.2012007
   8.4033410  70.4759305  54.0469005   7.8710241  71.3495819  53.1333185
   8.1799064  70.6522938  53.3171663  11.4517504  71.0968762  52.6814773
  10.8391818  71.5839164  53.0668505  11.5481679  70.4212253  53.2252424
  11.3755402  71.0687070  52.8193631   4.7129181  71.3524396  53.9189141
   3.8665226  71.5247204  53.7930491   4.7100313  70.5473740  54.2554969
   4.5876331  71.2585425  53.9500268   6.7313346  69.7267950  59.5870821
   6.2353907  69.9231624  58.8962387   7.4882408  70.1260618  59.4159622
   6.7700170  69.8145683  59.4590957   7.0806315  73.1050496  58.0505390
   7.5061386  72.6523022  57.4388917   6.4663308  72.5510566  58.3270178
   7.0534960  72.9564472  58.0010415   5.5200538  69.5765595  51.4595967
   4.8768856  69.4263242  52.0281106   5.1799945  69.3307941  50.6945072
   5.3745615  69.5177718  51.4298982  10.2728012  73.9880906  53.7916349
  10.6255622  73.5610629  54.4662148   9.4142813  73.9031749  53.9217425
  10.1977456  73.9125646  53.9111359  11.7052072  69.1099318  54.7200661
  11.1982936  68.4028457  54.6521839  12.5019505  68.7792506  54.8501738
  11.7479311  68.9572469  54.7299656   3.6413559  70.5228791  60.4950071
   3.7741465  69.7259785  60.8231047   4.0258712  71.0495194  61.0748347
   3.7169888  70.4828708  60.6293574   6.7145914  67.4459117  57.0931165
   5.9091878  67.3356847  57.4099003   6.5852650  67.5471573  56.2361030
   6.5766047  67.4442788  57.0139205   1.1475644  40.1042695  36.7311934
   1.1169648  40.9587331  36.9030203   1.7456993  39.8037987  37.2898077
   1.2312802  40.1859191  36.8386736   3.0788010  45.6033740  40.1875313
   2.2485713  45.8144383  40.3508729   3.0297262  44.7770794  39.9117597
   2.9494745  45.5123346  40.1712678   2.5741968  38.2504140  43.9825734
   1.7370389  38.3206327  44.2173329   2.5430199  38.2528635  43.1100037
   2.4460251  38.2614367  43.8885282   3.4696672  42.9914014  39.2159666
   4.1313106  42.4304682  39.1155574   2.8288083  42.4966045  39.5412357
   3.4725539  42.8350423  39.2492006   1.5851959  42.8481062  36.7941259
   1.9160176  43.3808702  36.1881353   2.1585047  42.9019950  37.4503209
   1.7185638  42.9350631  36.8019040   2.6931310  38.0891559  38.2981420
   2.4367875  37.2771501  38.1079303   3.5360624  38.0969126  38.0711607
   2.7797336  37.9703557  38.2366237   1.3992890  45.0285604  44.1968267
   1.0938707  45.7613661  44.5581583   0.6799106  44.6223533  43.9161053
   1.2480233  45.0767337  44.2081404   7.0994683  41.6678605  43.5236611
   7.0319183  41.6874564  42.6539198   7.0850345  42.5108932  43.7492282
   7.0873439  41.7952339  43.4289088   4.8853300  40.4422991  41.7983206
   5.4361221  39.8091060  42.0380298   4.8697415  40.9738384  42.4898710
   4.9638496  40.4271939  41.9362064   0.9830195  41.8078896  40.0708587
   0.8964170  41.9634322  40.9243366   0.5280675  42.4516972  39.6967992
   0.9033452  41.9254651  40.1415694   3.8160773  43.5878522  45.0432336
   3.8743896  44.0365171  45.7892312   3.1827240  43.9977335  44.6062416
   3.7312068  43.7152256  45.0884884   0.7682452  41.6094809  43.1298026
   0.5280675  40.7701225  43.1340453   1.2474459  41.6894976  43.8538800
   0.8034636  41.4976209  43.2372828   2.7687639  38.3896267  41.0827285
   2.5297409  38.3492101  40.2448070   2.9321540  39.2367419  41.2093006
   2.7577943  38.5088352  40.9780767   1.8068983  41.7372627  45.5162880
   2.3986823  42.3769878  45.5481078   2.2427978  41.0395664  45.8054947
   1.9587414  41.7290977  45.5643713   2.6290452  45.0457068  34.6381573
   3.0124058  45.7948424  34.8679670   1.8334565  45.2922887  34.3793562
   2.5684234  45.1926761  34.6339146  12.1208227  55.6228003  36.7311934
  12.0902232  56.4772639  36.9030203  12.7189576  55.3223295  37.2898077
  12.2045385  55.7044499  36.8386736   5.3207912  54.7103654  41.4864864
   4.4645808  54.8712152  41.5373981   5.3675566  53.8395718  41.5069925
   5.2007024  54.6054455  41.4970930   8.6301629  60.9790179  51.0925320
   9.3368396  60.4842210  51.2212255   8.8189564  61.4199261  50.3627978
   8.7629534  60.9708530  51.0034366   5.1574012  64.6691741  32.6787643
   4.8225380  65.3468663  32.2431865   5.6700882  64.2797052  32.0904514
   5.1839593  64.7116319  32.5274434   4.6978303  66.6206010  38.6198754
   5.0817683  67.1892908  38.0803530   4.6337444  65.8955520  38.1404570
   4.7451730  66.5981473  38.4692617   8.1659733  56.7695698  44.1296516
   8.7115693  57.4480784  44.1890485   8.1076610  56.6283158  43.2698097
   8.2375648  56.8487699  44.0108576   1.2833808  64.2584764  39.5164868
   1.3844171  63.4485118  39.8261996   0.6875553  64.1641710  38.8864547
   1.2106347  64.1249792  39.4691107   9.9424802  58.1980305  35.0030244
   9.8264328  58.9487991  35.4322382  10.7380689  57.9404258  35.2526331
  10.0429391  58.2715152  35.1034335   1.1234548  69.1762353  40.9179724
   1.7672003  69.6175517  41.3075883   1.4490803  68.3715779  40.8309983
   1.2666376  69.1227548  40.9625201   1.8255128  62.1874328  36.2899586
   2.1470969  62.7279535  35.6860894   2.4727224  61.6171099  36.4221876
   1.9681183  62.1833503  36.2206621   3.8756836  54.1890323  36.3733973
   4.5737000  54.3678450  36.8655436   4.1909168  53.6660662  35.7504362
   4.0252173  54.1384095  36.3535983   4.0644771  60.5760768  36.3613764
   4.5038406  59.9677868  36.8068537   3.9149434  60.1968141  35.5899229
   4.1066237  60.4299239  36.3132931   1.5316414  59.1704779  43.5632590
   2.1765417  58.6777223  43.2443538   1.7718191  59.3129566  44.3898668
   1.6626999  59.1182222  43.6382123   4.0702505  62.0159685  43.2139482
   4.3525748  61.2211091  42.9926238   4.7988666  62.4940273  43.2344543
   4.2192069  61.9694282  43.1842497   2.0483699  49.5582719  40.4555247
   1.7187029  50.0093863  39.7858946   1.3728701  49.4798883  41.0028254
   1.8994135  49.6133854  40.4378471   7.6654108  58.9287949  33.3144533
   7.5805403  59.7848916  33.4594102   8.1538491  58.6532273  33.9826692
   7.7243005  59.0145270  33.4346615   9.2560107  45.5468242  38.7004858
   8.9413548  46.2371721  39.1325280   8.7387049  45.4913024  37.9990359
   9.1324577  45.6403131  38.6601807   8.5972541  55.5472743  34.8142268
   8.0684012  55.7632377  35.4739575   9.1197561  56.2408882  34.7343238
   8.5960994  55.6815880  34.8997868  14.0520594  61.1219047  40.1875313
  13.2218297  61.3329691  40.3508729  14.0029846  60.2956102  39.9117597
  13.9227329  61.0308654  40.1712678   2.1130331  63.9522902  43.0223222
   1.5957273  63.5930317  42.4184531   2.8104722  63.4285076  43.0329289
   2.1395912  63.8220590  42.9353481   5.7693923  64.4017716  48.9839395
   5.8577269  64.2143856  49.8317606   6.1983636  63.7555145  48.5844242
   5.8456026  64.2780723  49.0511147   3.3364383  63.6848876  47.9657058
   2.7735218  63.2721486  48.4896719   4.0985406  63.6101781  48.3850201
   3.3658832  63.6126276  48.1050058   4.9449363  55.6901612  32.0918657
   5.1845367  55.8979596  31.2794000   5.2665204  54.8859121  32.2007602
   5.0286521  55.6015713  31.9879210  13.5474552  53.7689448  43.9825734
  12.7102973  53.8391635  44.2173329  13.5162783  53.7713943  43.1100037
  13.4192834  53.7799675  43.8885282   4.2896437  47.0291737  35.6705332
   5.0182598  46.8507692  35.2243488   4.3791330  47.8709817  35.8812510
   4.4103099  47.1275616  35.6358849   8.2704738  57.9645125  39.5737626
   9.0262253  58.3976639  39.6126534   8.3767062  57.3149894  40.1472262
   8.3974908  57.9322609  39.6635651  11.3084909  61.7918402  40.3240029
  10.8720141  61.7955144  41.0799000  10.9747824  62.4723901  39.8919606
  11.1947529  61.8930858  40.3720861   5.8813982  63.8326735  51.6483179
   6.6654399  63.9457583  52.0138921   5.6810577  63.0067872  51.8441865
   5.9680008  63.7273454  51.7317565  11.2282392  48.8332230  42.5669457
  11.8708300  48.9030334  43.1531372  11.4805413  48.1661453  42.0648999
  11.3604524  48.7458578  42.5796736   6.0384376  65.7436837  45.2949635
   5.2399622  65.5036337  45.5523503   6.4870387  65.7951230  46.0416682
   5.9858987  65.7159228  45.4434559  14.4429255  58.5099322  39.2159666
  15.1045689  57.9489990  39.1155574  13.8020667  58.0151353  39.5412357
  14.4458123  58.3535731  39.2492006   5.3306063  61.8069453  31.5240589
   5.7457211  61.4754477  30.8325085   4.4997992  61.5738355  31.3960726
   5.2694072  61.7240709  31.4031437  10.7294086  59.5264704  38.9571655
  10.9649675  59.6709903  38.1298505  10.8783649  60.2907112  39.3503168
  10.7859889  59.6603759  38.8935259  12.5584543  58.3666370  36.7941259
  12.8892760  58.8994010  36.1881353  13.1317631  58.4205258  37.4503209
  12.6918222  58.4535939  36.8019040   5.0985113  59.4897282  53.1869823
   4.3058093  59.8040794  53.3722442   5.2134040  59.7048750  52.3490607
   4.9980523  59.5681118  53.0908158   7.7716432  56.2131273  37.4764839
   7.8663286  56.9520567  37.9304464   7.1475275  55.7848748  37.9099403
   7.6925462  56.2592593  37.6072986   6.0268906  59.3917485  48.1255120
   6.6007767  58.7544730  48.2803683   5.9483709  59.3921568  47.2564777
   6.1002140  59.2982597  48.0201530   8.0239453  58.0580013  30.7101791
   7.9419616  58.1282200  31.5756778   8.6619173  58.6209757  30.5185531
   8.1059290  58.1518984  30.8091740   1.3832624  57.8240751  40.1776317
   1.1251868  56.9912485  40.1507616   1.4381107  58.0498364  39.3368817
   1.3532402  57.7338522  40.0496454   6.4633674  49.9269201  40.2780410
   5.7590001  49.4378387  40.4364329   6.5118649  49.9391676  39.4068854
   6.3663726  49.8558849  40.1719749   4.0240625  53.8501862  45.5233590
   3.6355058  53.4256080  44.8685781   3.3595323  54.0984012  46.0310617
   3.8687553  53.8240583  45.5021458  13.6663894  53.6076867  38.2981420
  13.4100459  52.7956809  38.1079303  14.5093208  53.6154434  38.0711607
  13.7529919  53.4888864  38.2366237   7.8466986  47.5476491  43.0357574
   8.2277498  46.8654662  43.4225449   7.0430271  47.2586093  42.8533239
   7.7843448  47.4043540  43.0661630   5.1279563  58.0800467  33.7210397
   5.9420202  58.3715360  33.6093168   5.0638704  57.4260329  33.1468690
   5.2382302  58.0265662  33.6199234  11.3489053  60.7626463  48.1339973
  11.1127691  59.9314528  48.0152033  11.9932282  60.7112070  48.7194817
  11.4083724  60.6324151  48.2025866   0.9987471  61.5521984  38.8482709
   1.6361418  61.3133732  39.3934503   1.4242543  61.7559143  38.1135870
   1.1563638  61.5472995  38.8199867   1.6390286  56.7724274  33.1857599
   2.0235439  56.5531981  33.9374144   1.3901907  57.5987220  33.3158675
   1.6592359  56.8622420  33.3158675   1.8058827  50.0530689  52.9020183
   1.4912268  50.8230252  52.6389746   1.4848759  49.4900945  52.3172410
   1.7117746  50.0840958  52.7761533  12.3725474  60.5470912  44.1968267
  12.0671291  61.2798969  44.5581583  11.6531690  60.1408841  43.9161053
  12.2212816  60.5952645  44.2081404   3.3808943  62.0294407  40.5276495
   3.4547952  61.8669579  41.3818345   4.1978450  62.2184597  40.2836977
   3.5125302  62.0331149  40.6174521  18.0727266  57.1863913  43.5236611
  18.0051766  57.2059872  42.6539198  18.0582929  58.0294240  43.7492282
  18.0606023  57.3137647  43.4289088   8.4823613  48.5899070  46.8477701
   9.2277205  48.4008881  46.4341126   8.0660917  49.1157308  46.2891557
   8.5308587  48.6401216  46.7042274   1.9213529  64.9929150  35.2589969
   2.2111827  64.6018131  34.5349195   2.6517010  65.1745855  35.6995244
   2.0720413  64.9622964  35.2172776  15.8585883  55.9608299  41.7983206
  16.4093805  55.3276368  42.0380298  15.8429999  56.4923692  42.4898710
  15.9371080  55.9457247  41.9362064   2.5108274  59.7946896  46.3443099
   2.0119968  60.5062664  46.4227988   3.3208499  60.1147563  46.3061262
   2.5564381  59.9473745  46.3499668   9.5614290  54.2004632  40.9087802
   9.2179056  53.4794968  41.2595052   9.6607332  53.9918484  40.0666160
   9.5256333  54.0628836  40.8359482   2.0287400  68.3425922  37.1080811
   2.6811458  67.8102365  37.3371837   1.3313009  67.9894575  37.4948685
   2.0218118  68.2115445  37.1992979  10.0227319  60.6630336  36.4511790
  10.5885351  61.3223546  36.3670333   9.3755222  61.0080035  36.9228192
  10.0106075  60.8112278  36.5084547   1.4375332  52.6527940  51.6405398
   0.6275108  52.9585720  51.5295240   1.9150019  53.3733523  51.7557982
   1.3878811  52.8042542  51.6412469   6.4933897  63.6069121  35.8748869
   6.2520573  62.8736981  35.4675934   6.6735230  64.1555978  35.2215203
   6.4841521  63.5791512  35.7179092   1.7233217  58.8977680  37.2869792
   1.5276000  59.5052415  36.6930095   1.9467563  58.2045624  36.8061466
   1.7267858  58.8855206  37.1285873   8.0805255  52.1196217  42.7847345
   7.2416356  52.1457496  42.5485608   8.1509622  52.7666953  43.3652692
   7.9673649  52.2192343  42.8356462   6.5274533  49.0181594  37.5174961
   7.2300886  48.8189342  37.0394919   6.2618722  48.2457537  37.8243804
   6.5921166  48.8744560  37.4920403  11.9562779  57.3264204  40.0708587
  11.8696753  57.4819630  40.9243366  11.5013259  57.9702279  39.6967992
  11.8766036  57.4439959  40.1415694   1.2903090  50.2816879  46.5705842
   1.0986287  50.2972014  47.4205265   2.1401686  50.4780554  46.5472496
   1.3878812  50.3131231  46.6929136   5.8288595  54.6474951  38.6934146
   5.5823309  54.5670702  39.5270935   6.1573718  53.8628419  38.4996674
   5.8409839  54.5201216  38.7881669   9.7236644  61.3558310  42.4820928
   9.5851003  62.0539356  42.9869670   8.9436642  61.2006967  42.1257109
   9.5879871  61.4358477  42.5047202   8.0614729  57.6554686  48.7343309
   8.0562767  56.7834502  48.7385736   8.7675723  57.8542855  48.2612765
   8.1659733  57.5558560  48.6650345   1.7885622  57.3831670  48.1057129
   1.9328998  57.9632878  47.4700239   2.1361271  57.7607966  48.8106984
   1.8613084  57.5252374  48.1156124   3.9605540  56.5821838  45.8882261
   3.2128854  56.7752852  45.4830539   4.1147065  55.7567058  45.6506382
   3.8727967  56.4886949  45.7927667   0.8613377  65.5734441  44.9718156
   1.0102941  65.0137357  44.3191561   1.6413379  65.6526443  45.3550675
   0.9987471  65.5020007  44.9315105  11.2190017  60.7136564  33.2437427
  10.8396825  59.9273702  33.2366716  10.5556262  61.2623421  33.1009071
  11.0648491  60.6781388  33.2218224   3.3866678  65.7449084  46.2502647
   3.3110349  65.0757895  46.8053435   3.3156537  66.4466872  46.7643313
   3.3647285  65.7493992  46.4079495   4.2007317  50.4772389  46.7777665
   4.6579931  51.2096363  46.9050457   4.2763645  50.0538854  47.5364920
   4.2798286  50.5229627  46.9078741   8.6734643  43.6562264  40.6471508
   8.7918211  44.1138727  39.9138810   8.4996818  42.8507525  40.3607725
   8.6653814  43.6056036  40.4972441   4.0436925  64.2650083  37.0826253
   4.8086816  63.9959727  36.7608917   3.9415015  63.7800094  37.7996316
   4.1418420  64.1539648  37.1406081   2.0789695  52.4674493  43.6219489
   1.2885769  52.2865953  43.9436825   2.4750317  51.6901445  43.6049783
   2.0206571  52.3261954  43.6672037   6.5655585  61.2962267  29.0626202
   7.3328570  61.3562392  28.6532054   6.1186894  60.7242708  28.5782521
   6.6129013  61.2198843  28.9303913   7.4633381  60.1016923  41.3478935
   6.7878383  59.8702155  41.8492322   7.4725757  59.4938106  40.7221040
   7.3651885  59.9775848  41.3295087   4.5927525  54.9434752  48.1042988
   4.5286666  55.8044708  47.9763124   4.7324713  54.6266745  47.3038539
   4.6042995  55.0234918  47.9671200   9.4650115  62.9582055  33.5789113
   9.5469953  63.7649041  33.2550563   9.9499858  62.9778014  34.3029886
   9.5487273  63.0802718  33.6376011   3.2746619  57.6366891  42.2459191
   2.8508868  57.8371390  41.5098209   3.0991474  56.7895739  42.3583490
   3.1857499  57.5415673  42.1532881   2.7758312  69.1517404  44.7080648
   3.2654242  68.4528193  44.5256312   2.2042544  68.8541274  45.2956705
   2.7642842  69.0043628  44.7681689   5.1008208  57.5076826  36.5480526
   5.6423754  57.0047207  37.0119147   5.4154767  57.4542021  35.7370012
   5.2272605  57.4256247  36.4964338   8.9725316  61.7179473  53.6607438
   9.7860181  61.4464622  53.8212571   8.8120282  61.4187013  52.8567634
   9.0695264  61.6334399  53.5652844   3.2694658  62.8994178  33.8320554
   3.3387478  62.0408716  33.9713555   4.0483113  63.1166059  33.5039579
   3.3947508  62.8047042  33.8037712   6.2497478  52.4013131  46.6002827
   6.4639447  51.7624045  46.0466181   5.6331377  52.8458954  46.1710688
   6.1902807  52.3723274  46.4553258   7.6602146  65.3231879  38.0457048
   7.2681937  65.0198594  37.3279914   7.8155218  66.1600969  37.8562001
   7.6255735  65.4015716  37.9113545   8.4136566  54.0102196  47.5386134
   7.6013247  53.7028086  47.6199307   8.8726500  53.5301196  48.1028846
   8.3616950  53.8938688  47.6340728   7.8241820  61.8881868  37.9863078
   7.4656475  62.0596511  38.7627111   7.3380531  62.3495073  37.4291077
   7.7000517  61.9820839  38.0188347   5.6412206  45.5113066  41.5890170
   4.7705764  45.4851787  41.5423479   5.8952548  45.3390258  40.7716015
   5.5505766  45.4823210  41.4610306   2.6130186  57.5681033  30.5263313
   2.9022711  58.3445916  30.8006887   2.7001985  57.0569765  31.2277812
   2.6684442  57.6072952  30.6705810   5.5090073  55.4162267  52.3214836
   5.9789704  56.0404384  52.7082710   5.5551953  54.7479243  52.8808051
   5.5857949  55.4096948  52.4614908   2.6661347  47.5219295  43.0463640
   2.1499835  46.8299486  43.1715219   2.1055276  48.1890072  42.9926239
   2.5067860  47.5182552  43.0569706   4.7353580  48.0612255  44.8756492
   4.3485333  48.0861286  45.6570022   4.2486518  47.4953933  44.4231009
   4.6066089  47.9808006  44.9244396   8.9846560  62.7785764  48.9330279
   9.6226280  62.2845959  48.5992735   8.3420651  62.7063164  48.3482506
   8.9840786  62.6944772  48.7972634  10.7103560  54.6274910  43.4996195
  10.2831168  54.5401258  42.7444294  10.0729613  54.7352685  44.0851039
  10.5533167  54.6307570  43.4741636   4.4010722  44.9479240  47.1666752
   5.0303840  45.4839540  46.8887823   4.5696585  44.8556599  48.0180318
   4.5188517  45.0140602  47.2515281   4.2024637  49.7350435  49.4393164
   5.0298066  49.4635584  49.4951778   4.2232483  50.5311277  49.7956982
   4.3277487  49.8130189  49.5008347   9.0400816  63.4705572  45.5735636
   9.8293194  63.1194637  45.6937717   9.2144414  64.2841960  45.3112270
   9.1821098  63.5391429  45.5523504   7.8934640  47.4815129  40.1352054
   8.0984234  47.4137437  40.9809051   7.5661064  48.2873950  40.0673232
   7.8749888  47.5901069  40.2511709   2.5910792  54.8095697  41.8761022
   2.2873929  54.2551685  42.4771430   1.8890212  54.9887907  41.3889056
   2.4427001  54.7540479  41.8930728   1.6476889  52.1196217  36.4405724
   1.9236623  51.4015129  36.0283292   2.2475558  52.7181137  36.2326830
   1.7770153  52.1016587  36.3486485   0.6529143  62.0245418  46.5833120
   0.5449498  62.0347480  47.4495178   0.8624924  62.8500198  46.3938074
   0.6679254  62.1486492  46.6837212  11.1468328  48.0346893  39.6154820
  10.5342642  48.5217295  40.0008552  11.2432503  47.3590384  40.1592471
  11.0706226  48.0065202  39.7533678   5.1487409  49.7909734  34.7152319
   5.6031156  49.9620294  35.4400164   5.6227455  49.1777845  34.3150095
   5.2855729  49.7260619  34.7626081  14.7893356  59.1063830  45.0432336
  14.8476480  59.5550478  45.7892312  14.1559824  59.5162643  44.6062416
  14.7044651  59.2337564  45.0884884   8.4292451  64.7267372  41.4787082
   8.2312139  65.2158186  40.7843293   7.8080162  64.9308613  42.0571215
   8.3080015  64.8283910  41.4610305   2.4900429  56.4952268  35.8197326
   3.2342474  56.8826545  36.0580276   2.6361125  55.6509694  35.9837814
   2.6211014  56.4282741  35.8791296   4.4080005  48.2902527  40.8529188
   3.5616050  48.4625335  40.7270537   4.4051137  47.4851871  41.1895016
   4.2827155  48.1963556  40.8840315   5.4778305  52.0677742  41.7191246
   5.0038259  51.5419504  42.2296557   5.8496441  51.5207215  41.1506107
   5.4628194  51.9093738  41.7106393  11.7415036  57.1280117  43.1298026
  11.5013259  56.2886533  43.1340453  12.2207043  57.2080284  43.8538800
  11.7767219  57.0161517  43.2372828   7.4061805  52.9614296  34.7816999
   6.8784823  53.0443040  34.0922708   7.8657513  53.7032168  34.7781644
   7.3963655  53.0834959  34.6791695  13.7420223  53.9081575  41.0827285
  13.5029993  53.8677409  40.2448070  13.9054124  54.7552727  41.2093006
  13.7310526  54.0273660  40.9780767  10.3466253  58.2931524  47.0132330
  11.0700452  57.8404050  46.8343350  10.0816215  58.5736190  46.2304658
  10.4147526  58.2682492  46.8711046   6.9598887  61.5317860  33.9126656
   7.6833086  61.9975973  33.7691230   6.5199478  61.5991470  33.1624253
   7.0014579  61.6101697  33.7811438   6.1285042  58.3915402  45.1627345
   5.5142035  57.8473452  45.4575981   6.6452327  57.8779639  44.6833162
   6.1140705  58.2351811  45.1351574   5.3681339  59.4619672  42.8971644
   4.9408947  58.8369391  42.4637079   5.3606284  59.1794594  43.7230651
   5.3040481  59.3272453  42.9551472   6.4264170  46.6646081  46.5210868
   5.9304731  46.8609755  45.8302434   7.1833232  47.0638749  46.3499669
   6.4650994  46.7523815  46.3931004   3.6967049  50.3388427  43.1114178
   3.7209536  49.8048539  42.4226958   3.9478523  49.8305736  43.7739769
   3.7376968  50.1849331  43.1078823   2.1597984  58.6319985  50.5940217
   1.3093615  58.7691699  50.7297862   2.3226112  57.8983763  51.0387919
   2.0581848  58.5434086  50.6795816   1.3982735  55.5819755  44.7893821
   0.5674664  55.7493573  44.5829070   1.3434252  55.2055706  45.5742707
   1.2672150  55.5509486  44.8742350  12.7801567  57.2557935  45.5162880
  13.3719407  57.8955185  45.5481078  13.2160561  56.5580971  45.8054947
  12.9319998  57.2476285  45.5643713   1.3797984  50.6556433  32.6221958
   1.7013825  50.1759515  31.9681220   1.6424928  51.4656079  32.4312770
   1.4664009  50.7046331  32.4977450   4.6094957  61.6775307  46.1420774
   4.1020048  62.2311154  46.5861405   4.3121603  61.7383597  45.3239549
   4.4899842  61.7681618  46.0869231   6.7757139  50.0428627  44.9845437
   7.2012210  49.5901153  44.3728963   6.1614132  49.4888697  45.2610224
   6.7485784  49.8942603  44.9350462   7.2202737  65.5938565  34.0724718
   6.5032047  65.4199427  33.6071955   7.8709474  65.3591137  33.5400204
   7.2104587  65.5334357  33.9253935   5.2151362  46.5143727  38.3936014
   4.5719680  46.3641373  38.9621152   4.8750769  46.2686072  37.6285119
   5.0696439  46.4555849  38.3639029   9.8050708  54.4703153  37.8166023
   9.1341898  55.0132856  37.6879088  10.4990458  54.9398009  37.5747717
   9.8079576  54.6201425  37.7621550   3.8537442  66.6099865  43.0477781
   3.6303096  65.8518695  43.4161807   3.3647285  66.6397887  42.3258221
   3.7480891  66.5022090  42.9954522   9.9678836  50.9259037  40.7256396
  10.3206446  50.4988760  41.4002195   9.1093637  50.8409881  40.8557472
   9.8928280  50.8503778  40.8451406   7.9662101  54.1894406  44.6741238
   7.9460029  54.0077701  45.5276017   8.0141302  55.0606424  44.6500822
   7.9696742  54.2910944  44.7964533   5.9108431  60.7781598  50.5989715
   5.8704286  60.1331275  50.0134871   6.7231749  60.7218215  50.9115127
   6.0251585  60.6740564  50.5586664   2.5015899  66.8300323  40.5014866
   2.0876297  66.1674454  40.1118707   3.1863273  66.9778182  39.9810560
   2.5414270  66.7540982  40.3671363   5.8681193  65.9890409  41.2538482
   5.4697476  66.0992679  40.4859302   5.2532412  66.1972475  41.8365042
   5.7180082  66.0363977  41.2269781   4.4409095  52.5964557  34.1212622
   3.8473934  52.9181553  33.5697189   4.4784373  51.7505652  33.9133728
   4.3583484  52.5188885  34.0095393  11.4002896  46.0477449  41.6540708
  10.8933760  45.3406588  41.5861886  12.1970329  45.7170638  41.7841785
  11.4430135  45.8950600  41.6639703   7.3166912  52.5544061  37.5514372
   7.0880605  52.5776763  36.7092730   7.5764988  51.7301528  37.6709383
   7.3213100  52.4360141  37.4439570   1.5986140  54.4078534  47.1539472
   1.0865043  53.7999717  47.5124504   1.4265636  55.1235127  47.6213448
   1.4975777  54.4241833  47.2755696  13.6023036  60.5642375  34.6381573
  13.9856641  61.3133732  34.8679670  12.8067149  60.8108195  34.3793562
  13.5416818  60.7112069  34.6339146   5.4755210  52.3302779  49.5941728
   6.0326640  52.1016588  48.9620193   5.1516275  53.0908444  49.3176940
   5.5101620  52.4086615  49.4598225   3.1938328  55.4170432  50.5593735
   3.9449655  55.7322109  50.8733289   3.3860904  55.2149603  49.7327657
   3.3329742  55.4337814  50.4837131   2.4138327  53.2361807  32.2141952
   2.7937292  53.2541436  31.4293066   1.6730923  53.6815796  32.0932799
   2.3607165  53.3043582  32.0805520  10.0423618  51.5443998  37.8017530
  10.0417844  51.3892655  38.6601807   9.8379798  52.3906985  37.7458916
  10.0123396  51.6464619  37.9205470   7.7664470  56.2241500  41.4553737
   8.2618135  55.5064495  41.4157758   6.9564245  55.9212298  41.3408224
   7.7208363  56.0739146  41.4327463   3.2123081  60.0739313  33.6050742
   2.4034404  59.7505987  33.5584051   3.7197990  59.3672536  33.5378990
   3.1672748  59.9220630  33.5881036   9.8316289  58.9745188  44.1430866
  10.2571360  58.4519610  43.5901291   9.4673208  59.5726025  43.6219489
   9.8402891  58.9855415  43.9839876   6.4194888  62.6879452  40.4732023
   6.8906066  63.4019715  40.6422009   6.7555067  62.0878202  41.0091893
   6.5390003  62.7050916  40.5764399   8.5071873  64.2980765  52.6524096
   8.6168838  63.5089326  53.0080843   8.8362769  64.2086702  51.8498434
   8.5724278  64.1686618  52.5866486   3.3364383  47.4606923  47.4290118
   3.4692289  46.6637916  47.7571094   3.7209536  47.9873326  48.0088394
   3.4120712  47.4206839  47.5633621   7.0568834  62.4797386  47.2359716
   6.5089780  61.8555270  46.9679781   7.5181863  62.6691658  46.5203796
   7.0436044  62.4156436  47.0910147   6.4096738  44.3837249  44.0271212
   5.6042702  44.2734978  44.3439050   6.2803474  44.4849704  43.1701077
   6.2716871  44.3820919  43.9479252   9.8662699  50.5482741  44.6210908
   9.2825688  51.0491947  44.2088476  10.1866993  50.0412297  43.9875232
   9.8275874  50.5474576  44.4669416   2.4057498  49.4623335  34.8969583
   3.2273192  49.6321648  34.6551278   1.9427149  49.6170596  34.1735881
   2.4588660  49.5105068  34.7541228   0.9952830  47.4566098  45.6768012
   1.5397243  47.1157224  46.2672354   1.0489766  48.3151559  45.8189297
   1.0841949  47.5321357  45.7849885   6.6227161  63.4848459  43.7669057
   7.4425534  63.3411425  44.0285352   6.3421238  64.1094658  44.3085495
   6.7023904  63.5558811  43.8856997  23.0940811  71.1413310  36.7311934
  23.0634815  71.9957947  36.9030203  23.6922160  70.8408603  37.2898077
  23.1777969  71.2229807  36.8386736  16.2940496  70.2288961  41.4864864
  15.4378391  70.3897460  41.5373981  16.3408150  69.3581025  41.5069925
  16.1739607  70.1239763  41.4970930  19.6034212  76.4975487  51.0925320
  20.3100980  76.0027518  51.2212255  19.7922148  76.9384569  50.3627978
  19.7362118  76.4893837  51.0034366  19.1392317  72.2881005  44.1296516
  19.6848277  72.9666092  44.1890485  19.0809193  72.1468466  43.2698097
  19.2108231  72.3673007  44.0108576  20.9157386  73.7165613  35.0030244
  20.7996911  74.4673299  35.4322382  21.7113272  73.4589566  35.2526331
  21.0161975  73.7900459  35.1034335   7.7521524  67.9676089  42.0401510
   7.1326555  67.3768736  41.8711524   7.6505387  68.5587524  41.4065833
   7.6459199  67.9680171  41.9206499  14.8489419  69.7075630  36.3733973
  15.5469584  69.8863758  36.8655436  15.1641752  69.1845970  35.7504362
  14.9984756  69.6569403  36.3535983   7.4790657  71.5128370  44.2845078
   7.3549353  72.0990816  44.9194897   8.1308941  71.0188566  44.5857353
   7.5564306  71.5267175  44.4231008  12.5048998  74.6890087  43.5632590
  13.1498000  74.1962530  43.2443538  12.7450775  74.8314874  44.3898668
  12.6359583  74.6367530  43.6382123  13.0216283  65.0768027  40.4555247
  12.6919613  65.5279171  39.7858946  12.3461285  64.9984190  41.0028254
  12.8726719  65.1319162  40.4378471  18.6386691  74.4473257  33.3144533
  18.5537986  75.3034223  33.4594102  19.1271074  74.1717581  33.9826692
  18.6975588  74.5330578  33.4346615  20.2292691  61.0653550  38.7004858
  19.9146132  61.7557029  39.1325280  19.7119632  61.0098332  37.9990359
  20.1057161  61.1588439  38.6601807  19.5705124  71.0658051  34.8142268
  19.0416596  71.2817684  35.4739575  20.0930144  71.7594189  34.7343238
  19.5693577  71.2001188  34.8997868  25.0253177  76.6404355  40.1875313
  24.1950880  76.8514999  40.3508729  24.9762430  75.8141410  39.9117597
  24.8959913  76.5493962  40.1712678  15.9181947  71.2086920  32.0918657
  16.1577950  71.4164904  31.2794000  16.2397788  70.4044429  32.2007602
  16.0019104  71.1201021  31.9879210  11.2272237  63.1380316  35.9378195
  11.9818205  63.5058633  35.6995245  11.0499771  63.5119870  36.7057375
  11.3126715  63.2478503  36.0163083  24.5207136  69.2874756  43.9825734
  23.6835557  69.3576943  44.2173329  24.4895366  69.2899251  43.1100037
  24.3925418  69.2984983  43.8885282  10.9171865  71.4307792  49.6974103
  11.0892368  71.3213686  50.5459384  11.4541222  72.0762197  49.4605295
  11.0216869  71.5099793  49.7879200   9.5829301  65.5450635  32.6356308
   9.4004875  65.7622515  31.8097301  10.4454914  65.6589647  32.6914922
   9.6833891  65.5940532  32.5210795  15.2629021  62.5477045  35.6705332
  15.9915181  62.3693000  35.2243488  15.3523914  63.3895125  35.8812510
  15.3835683  62.6460924  35.6358849  19.2437321  73.4830433  39.5737626
  19.9994836  73.9161947  39.6126534  19.3499646  72.8335202  40.1472262
  19.3707492  73.4507916  39.6635651  22.2817492  77.3103710  40.3240029
  21.8452724  77.3140452  41.0799000  21.9480408  77.9909209  39.8919606
  22.1680112  77.4116166  40.3720861  22.2014975  64.3517538  42.5669457
  22.8440884  64.4215642  43.1531372  22.4537996  63.6846761  42.0648999
  22.3337107  64.2643886  42.5796736   9.1291328  68.8224807  31.1478781
   8.4149506  68.5362987  31.5601213   9.6135297  69.1621433  31.7885168
   9.0950692  68.8306457  31.3034416   9.9732188  67.5618101  47.1794031
   9.2803985  67.0915081  47.4254762  10.5892515  67.3356406  47.7535738
   9.9616718  67.4585233  47.3003183  25.4161839  74.0284630  39.2159666
  26.0778273  73.4675298  39.1155574  24.7753251  73.5336660  39.5412357
  25.4190706  73.8721039  39.2492006  21.7026669  75.0450012  38.9571655
  21.9382259  75.1895211  38.1298505  21.8516233  75.8092420  39.3503168
  21.7592473  75.1789067  38.8935259   8.6972747  71.5283505  48.3220876
   9.4212719  71.5136536  48.8085771   8.7988883  72.2378860  47.8242844
   8.8190956  71.6308208  48.3199663  23.5317126  73.8851678  36.7941259
  23.8625343  74.4179318  36.1881353  24.1050214  73.9390566  37.4503209
  23.6650805  73.9721247  36.8019040  16.0717696  75.0082590  53.1869823
  15.2790677  75.3226101  53.3722442  16.1866623  75.2234058  52.3490607
  15.9713107  75.0866426  53.0908158  18.7449015  71.7316581  37.4764839
  18.8395870  72.4705875  37.9304464  18.1207859  71.3034056  37.9099403
  18.6658045  71.7777901  37.6072986  17.0001489  74.9102793  48.1255120
  17.5740351  74.2730038  48.2803683  16.9216293  74.9106876  47.2564777
  17.0734724  74.8167905  48.0201530   5.5997906  71.6892003  41.9637834
   6.1771408  71.5528454  42.6030079   4.9011967  71.2327787  42.2183418
   5.5818927  71.6014269  42.0960123  18.9972037  73.5765321  30.7101791
  18.9152199  73.6467508  31.5756778  19.6351757  74.1395064  30.5185531
  19.0791874  73.6704292  30.8091740  12.3565208  73.3426059  40.1776317
  12.0984452  72.5097793  40.1507616  12.4113691  73.5683671  39.3368817
  12.3264986  73.2523830  40.0496454  17.4366258  65.4454509  40.2780410
  16.7322585  64.9563695  40.4364329  17.4851232  65.4576984  39.4068854
  17.3396309  65.3744157  40.1719749  11.3299920  70.8963821  40.6641212
  10.7549511  71.0555989  41.3005173  10.9535596  70.2599230  40.2009662
  11.1902732  70.8261634  40.6895770  14.9973208  69.3687170  45.5233590
  14.6087641  68.9441388  44.8685781  14.3327907  69.6169320  46.0310617
  14.8420136  69.3425891  45.5021458  24.6396478  69.1262175  38.2981420
  24.3833042  68.3142116  38.1079303  25.4825792  69.1339742  38.0711607
  24.7262503  69.0074172  38.2366237   1.0756739  70.5403896  38.6785652
   1.1616991  70.1635764  39.4599182   1.7032536  70.1664341  38.2005611
   1.1813290  70.4289378  38.7231130  18.8199570  63.0661799  43.0357574
  19.2010082  62.3839970  43.4225449  18.0162854  62.7771401  42.8533239
  18.7576032  62.9228848  43.0661630  16.1012147  73.5985775  33.7210397
  16.9152786  73.8900668  33.6093168  16.0371288  72.9445637  33.1468690
  16.2114886  73.5450970  33.6199234  22.3221637  76.2811771  48.1339973
  22.0860274  75.4499836  48.0152033  22.9664866  76.2297378  48.7194817
  22.3816308  76.1509459  48.2025866  12.6122870  72.2909582  33.1857599
  12.9968023  72.0717289  33.9374144  12.3634490  73.1172527  33.3158675
  12.6324943  72.3807728  33.3158675  12.7791410  65.5715997  52.9020183
  12.4644852  66.3415560  52.6389746  12.4581343  65.0086253  52.3172410
  12.6850330  65.6026266  52.7761533  23.3458058  76.0656220  44.1968267
  23.0403875  76.7984277  44.5581583  22.6264273  75.6594149  43.9161053
  23.1945400  76.1137953  44.2081404  29.0459850  72.7049220  43.5236611
  28.9784350  72.7245180  42.6539198  29.0315512  73.5479548  43.7492282
  29.0338606  72.8322955  43.4289088  10.3323307  63.9606519  38.5166379
   9.4645733  64.0329118  38.5823988  10.6198512  64.7628598  38.7054354
  10.2463055  64.0900666  38.5541146  19.4556196  64.1084378  46.8477701
  20.2009788  63.9194189  46.4341126  19.0393501  64.6342616  46.2891557
  19.5041170  64.1586524  46.7042274  26.8318467  71.4793607  41.7983206
  27.3826389  70.8461676  42.0380298  26.8162582  72.0108999  42.4898710
  26.9103663  71.4642555  41.9362064  20.5346873  69.7189940  40.9087802
  20.1911639  68.9980276  41.2595052  20.6339916  69.5103791  40.0666160
  20.4988916  69.5814144  40.8359482  20.9959902  76.1815644  36.4511790
  21.5617935  76.8408854  36.3670333  20.3487806  76.5265342  36.9228192
  20.9838659  76.3297586  36.5084547  12.4107916  68.1713248  51.6405398
  11.6007692  68.4771028  51.5295240  12.8882603  68.8918831  51.7557982
  12.3611395  68.3227849  51.6412469   8.2590659  67.4364778  35.9583255
   7.9715455  67.0666048  35.2215203   8.9461128  67.9059633  35.6966960
   8.3179557  67.4511747  35.8098331  12.6965801  74.4162988  37.2869792
  12.5008584  75.0237723  36.6930095  12.9200147  73.7230932  36.8061466
  12.7000442  74.4040514  37.1285873  11.0944331  71.3017726  37.4050660
  11.8166983  71.4658884  36.9454466  10.6152324  72.0227391  37.2990000
  11.1308062  71.4315956  37.3216274  19.0537839  67.6381525  42.7847345
  18.2148939  67.6642804  42.5485608  19.1242206  68.2852260  43.3652692
  18.9406232  67.7377651  42.8356462  17.5007117  64.5366902  37.5174961
  18.2033470  64.3374650  37.0394919  17.2351306  63.7642844  37.8243804
  17.5653749  64.3929868  37.4920403  22.9295362  72.8449512  40.0708587
  22.8429337  73.0004938  40.9243366  22.4745842  73.4887587  39.6967992
  22.8498619  72.9625267  40.1415694   5.8318854  68.2145991  36.8068536
   5.9334991  69.0172152  37.1349512   6.6274741  68.0133326  36.5091617
   5.9646760  68.3031889  36.8103892  12.2635673  65.8002187  46.5705842
  12.0718870  65.8157322  47.4205265  13.1134269  65.9965862  46.5472496
  12.3611395  65.8316538  46.6929136   6.6482586  68.3293169  44.5489658
   6.5068078  67.4777109  44.6734166   6.9323150  68.3721829  43.7251864
   6.6690432  68.2092919  44.4457282  16.8021179  70.1660259  38.6934146
  16.5555893  70.0856010  39.5270935  17.1306302  69.3813727  38.4996674
  16.8142422  70.0386524  38.7881669  20.6969227  76.8743618  42.4820928
  20.5583587  77.5724664  42.9869670  19.9169225  76.7192275  42.1257109
  20.5612454  76.9543785  42.5047202  19.0347313  73.1739994  48.7343309
  19.0295351  72.3019810  48.7385736  19.7408306  73.3728163  48.2612765
  19.1392317  73.0743868  48.6650345  12.7618206  72.9016978  48.1057129
  12.9061582  73.4818186  47.4700239  13.1093854  73.2793274  48.8106984
  12.8345667  73.0437682  48.1156124  14.9338123  72.1007146  45.8882261
  14.1861437  72.2938160  45.4830539  15.0879648  71.2752365  45.6506382
  14.8460551  72.0072257  45.7927667  22.1922600  76.2321872  33.2437427
  21.8129409  75.4459010  33.2366716  21.5288846  76.7808729  33.1009071
  22.0381075  76.1966696  33.2218224  15.1739900  65.9957697  46.7777665
  15.6312514  66.7281671  46.9050457  15.2496229  65.5724162  47.5364920
  15.2530870  66.0414935  46.9078741   7.4172891  66.2423516  47.8667108
   6.8815081  65.6303874  48.1827876   7.4790656  66.8171652  48.5200775
   7.3468524  66.2370444  48.0102535  19.6467226  59.1747572  40.6471508
  19.7650794  59.6324035  39.9138810  19.4729402  58.3692833  40.3607725
  19.6386397  59.1241344  40.4972441  13.0522278  67.9859801  43.6219489
  12.2618353  67.8051261  43.9436825  13.4482901  67.2086753  43.6049783
  12.9939154  67.8447261  43.6672037  17.5388169  76.8147575  29.0626202
  18.3061154  76.8747700  28.6532054  17.0919478  76.2428016  28.5782521
  17.5861596  76.7384151  28.9303913  18.4365964  75.6202231  41.3478935
  17.7610966  75.3887463  41.8492322  18.4458341  75.0123414  40.7221040
  18.3384469  75.4961156  41.3295087  15.5660108  70.4620060  48.1042988
  15.5019250  71.3230016  47.9763124  15.7057296  70.1452053  47.3038539
  15.5775578  70.5420226  47.9671200  14.2479202  73.1552199  42.2459191
  13.8241451  73.3556698  41.5098209  14.0724057  72.3081047  42.3583490
  14.1590083  73.0600980  42.1532881  16.0740792  73.0262134  36.5480526
  16.6156337  72.5232515  37.0119147  16.3887351  72.9727329  35.7370012
  16.2005189  72.9441555  36.4964338  19.9457899  77.2364781  53.6607438
  20.7592765  76.9649930  53.8212571  19.7852866  76.9372321  52.8567634
  20.0427848  77.1519707  53.5652844  17.2230061  67.9198439  46.6002827
  17.4372031  67.2809353  46.0466181  16.6063960  68.3644262  46.1710688
  17.1635390  67.8908582  46.4553258   6.1095909  70.8339201  37.9947930
   6.4894874  71.2523746  37.3308198   5.5351274  71.4152657  38.3016774
   6.0807234  70.9817060  37.9424671  19.3869149  69.5287504  47.5386134
  18.5745831  69.2213394  47.6199307  19.8459084  69.0486504  48.1028846
  19.3349534  69.4123996  47.6340728  16.6144790  61.0298374  41.5890170
  15.7438348  61.0037095  41.5423479  16.8685131  60.8575566  40.7716015
  16.5238350  61.0008518  41.4610306  13.5862769  73.0866341  30.5263313
  13.8755294  73.8631224  30.8006887  13.6734568  72.5755073  31.2277812
  13.6417026  73.1258259  30.6705810  16.4822657  70.9347575  52.3214836
  16.9522288  71.5589692  52.7082710  16.5284537  70.2664551  52.8808051
  16.5590533  70.9282255  52.4614908  13.6393930  63.0404603  43.0463640
  13.1232419  62.3484794  43.1715219  13.0787859  63.7075380  42.9926239
  13.4800444  63.0367860  43.0569706  15.7086164  63.5797563  44.8756492
  15.3217917  63.6046594  45.6570022  15.2219101  63.0139241  44.4231009
  15.5798673  63.4993314  44.9244396  21.6836143  70.1460218  43.4996195
  21.2563751  70.0586566  42.7444294  21.0462196  70.2537993  44.0851039
  21.5265751  70.1492877  43.4741636  15.3743306  60.4664548  47.1666752
  16.0036424  61.0024848  46.8887823  15.5429168  60.3741907  48.0180318
  15.4921100  60.5325910  47.2515281  15.1757220  65.2535743  49.4393164
  16.0030650  64.9820892  49.4951778  15.1965067  66.0496585  49.7956982
  15.3010071  65.3315497  49.5008347   9.7526710  72.3999606  42.6263425
   8.9114717  72.3003480  42.8342318   9.9616718  73.1695086  42.9777745
   9.6591403  72.4991649  42.7090740   7.2302277  70.0219143  40.4548175
   6.8358975  70.0962154  39.6798285   6.6742394  70.4077089  41.0056537
   7.0905090  70.0900917  40.4215835  18.8667224  63.0000437  40.1352054
  19.0716817  62.9322744  40.9809051  18.5393648  63.8059258  40.0673232
  18.8482472  63.1086377  40.2511709  13.5643375  70.3281005  41.8761022
  13.2606513  69.7736993  42.4771430  12.8622796  70.5073215  41.3889056
  13.4159585  70.2725787  41.8930728  12.6209472  67.6381525  36.4405724
  12.8969207  66.9200437  36.0283292  13.2208142  68.2366445  36.2326830
  12.7502737  67.6201895  36.3486485  22.1200912  63.5532201  39.6154820
  21.5075225  64.0402603  40.0008552  22.2165087  62.8775692  40.1592471
  22.0438809  63.5250510  39.7533678  16.1219993  65.3095042  34.7152319
  16.5763739  65.4805602  35.4400164  16.5960039  64.6963153  34.3150095
  16.2588313  65.2445927  34.7626081  10.0396141  65.9545366  44.7123075
  10.4997623  66.0284295  45.4498199  10.0852248  66.7526620  44.3622897
  10.1146696  66.0839513  44.7695832  11.6879491  66.6212061  49.2795102
  11.2965056  65.9745408  49.7150880  11.8565353  67.2123496  49.8989358
  11.6550401  66.6126328  49.4357808  25.7625940  74.6249138  45.0432336
  25.8209063  75.0735786  45.7892312  25.1292407  75.0347950  44.6062416
  25.6777235  74.7522872  45.0884884  13.4633013  72.0137576  35.8197326
  14.2075058  72.4011853  36.0580276  13.6093709  71.1695002  35.9837814
  13.5943598  71.9468049  35.8791296  15.3812588  63.8087835  40.8529188
  14.5348633  63.9810643  40.7270537  15.3783721  63.0037179  41.1895016
  15.2559738  63.7148864  40.8840315  16.4510889  67.5863050  41.7191246
  15.9770843  67.0604812  42.2296557  16.8229024  67.0392523  41.1506107
  16.4360778  67.4279046  41.7106393   6.8283919  69.5834556  47.0874791
   7.6909532  69.4830266  47.0012121   6.4975702  69.0029266  46.5260364
   6.9069115  69.4826183  46.9920197  22.7147619  72.6465425  43.1298026
  22.4745842  71.8071841  43.1340453  23.1939626  72.7265592  43.8538800
  22.7499803  72.5346825  43.2372828  18.3794388  68.4799604  34.7816999
  17.8517407  68.5628348  34.0922708  18.8390096  69.2217476  34.7781644
  18.3696239  68.6020267  34.6791695  24.7152806  69.4266883  41.0827285
  24.4762576  69.3862717  40.2448070  24.8786707  70.2738035  41.2093006
  24.7043110  69.5458968  40.9780767  21.3198836  73.8116832  47.0132330
  22.0433035  73.3589358  46.8343350  21.0548799  74.0921498  46.2304658
  21.3880110  73.7867800  46.8711046  10.1885705  68.4077005  43.7485210
   9.5638775  68.4195397  43.1411162   9.8531300  68.8837181  44.3976450
  10.0471197  68.4795522  43.7541778  10.3727453  66.7502124  29.8057895
  10.0240258  67.4021849  30.2689444   9.8923899  66.7359237  29.0781766
  10.2497697  66.8445177  29.7668986  17.1017626  73.9100710  45.1627345
  16.4874619  73.3658760  45.4575981  17.6184911  73.3964947  44.6833162
  17.0873288  73.7537119  45.1351574  16.3413923  74.9804980  42.8971644
  15.9141531  74.3554699  42.4637079  16.3338867  74.6979902  43.7230651
  16.2773064  74.8457761  42.9551472   9.4576450  70.0170153  45.9660078
   9.6169937  69.2613477  46.3711800   9.2769344  70.5661093  46.6200816
   9.4541809  69.9863967  46.1222784  17.3996753  62.1831389  46.5210868
  16.9037314  62.3795063  45.8302434  18.1565815  62.5824057  46.3499669
  17.4383578  62.2709123  46.3931004  14.6699633  65.8573735  43.1114178
  14.6942120  65.3233847  42.4226958  14.9211106  65.3491043  43.7739769
  14.7109551  65.7034639  43.1078823  10.9500955  64.5844553  42.4919922
  10.9899327  65.0853759  43.2054630  10.1250620  64.6754947  42.2225845
  10.8340481  64.6726369  42.5570461  13.1330568  74.1505293  50.5940217
  12.2826198  74.2877007  50.7297862  13.2958696  73.4169071  51.0387919
  13.0314431  74.0619394  50.6795816  12.3715318  71.1005063  44.7893821
  11.5407248  71.2678881  44.5829070  12.3166835  70.7241014  45.5742707
  12.2404733  71.0694794  44.8742350  10.1799102  64.5913956  50.4250232
  10.8051805  64.0476088  50.6979664   9.7249581  64.1108873  49.8558022
  10.2047362  64.4403437  50.3811826  10.7451362  69.3760654  35.3183939
  10.8854323  69.8733119  36.0212580  11.2433895  68.6746949  35.4598153
  10.8392443  69.3462633  35.4435518  10.7751585  70.2427765  32.6476516
  11.4096664  70.8388190  32.5825978  10.8577195  69.9431223  33.4622386
  10.8808136  70.2868673  32.7579602  23.7534150  72.7743243  45.5162880
  24.3451991  73.4140493  45.5481078  24.1893145  72.0766279  45.8054947
  23.9052582  72.7661593  45.5643713  12.3530567  66.1741741  32.6221958
  12.6746408  65.6944823  31.9681220  12.6157511  66.9841387  32.4312770
  12.4396593  66.2231639  32.4977450  17.7489722  65.5613935  44.9845437
  18.1744794  65.1086461  44.3728963  17.1346715  65.0074005  45.2610224
  17.7218368  65.4127911  44.9350462   7.2804572  72.4395606  35.9166062
   7.7896802  73.0360114  36.2977367   7.7538845  72.1721580  35.2342482
   7.4247948  72.4881422  35.8720585  16.1883945  62.0329034  38.3936014
  15.5452263  61.8826681  38.9621152  15.8483352  61.7871380  37.6285119
  16.0429023  61.9741157  38.3639029  20.7783292  69.9888461  37.8166023
  20.1074482  70.5318164  37.6879088  21.4723042  70.4583317  37.5747717
  20.7812159  70.1386733  37.7621550  20.9411419  66.4444345  40.7256396
  21.2939029  66.0174068  41.4002195  20.0826221  66.3595188  40.8557472
  20.8660864  66.3689086  40.8451406   9.6395104  69.0751865  38.7839242
   8.9207093  69.4915997  39.0512106  10.0107466  69.6406103  38.2330881
   9.5887036  69.2201146  38.7422049  18.9394685  69.7079714  44.6741238
  18.9192612  69.5263009  45.5276017  18.9873886  70.5791732  44.6500822
  18.9429326  69.8096252  44.7964533  16.8841015  76.2966906  50.5989715
  16.8436870  75.6516582  50.0134871  17.6964333  76.2403523  50.9115127
  16.9984168  76.1925872  50.5586664  15.4141679  68.1149865  34.1212622
  14.8206518  68.4366861  33.5697189  15.4516956  67.2690960  33.9133728
  15.3316068  68.0374193  34.0095393  22.3735479  61.5662757  41.6540708
  21.8666344  60.8591896  41.5861886  23.1702913  61.2355946  41.7841785
  22.4162718  61.4135908  41.6639703  18.2899495  68.0729369  37.5514372
  18.0613188  68.0962070  36.7092730  18.5497571  67.2486836  37.6709383
  18.2945683  67.9545449  37.4439570  12.5718724  69.9263842  47.1539472
  12.0597627  69.3185025  47.5124504  12.3998220  70.6420435  47.6213448
  12.4708361  69.9427141  47.2755696   7.4184438  68.3701417  49.8041834
   7.2487029  69.0302792  49.2590041   6.9750388  68.5807979  50.5254323
   7.3283772  68.4987399  49.8303464  11.3444258  66.6105915  38.8468568
  11.8201624  66.9722995  38.2118749  10.8432857  67.2662383  39.1268710
  11.3409617  66.7600104  38.7945309  24.5755619  76.0827683  34.6381573
  24.9589225  76.8319040  34.8679670  23.7799732  76.3293503  34.3793562
  24.5149401  76.2297377  34.6339146  16.4487794  67.8488087  49.5941728
  17.0059224  67.6201896  48.9620193  16.1248859  68.6093752  49.3176940
  16.4834204  67.9271923  49.4598225   4.3186503  71.2748283  45.0630324
   3.7713222  70.6048928  45.1811192   5.1078881  70.9078131  45.1273791
   4.3538686  71.1213269  45.0899024  14.1670911  70.9355740  50.5593735
  14.9182238  71.2507417  50.8733289  14.3593488  70.7334911  49.7327657
  14.3062325  70.9523122  50.4837131  13.3870911  68.7547115  32.2141952
  13.7669876  68.7726744  31.4293066  12.6463507  69.2001104  32.0932799
  13.3339749  68.8228890  32.0805520  21.0156201  67.0629306  37.8017530
  21.0150428  66.9077963  38.6601807  20.8112381  67.9092293  37.7458916
  20.9855979  67.1649927  37.9205470   3.0773472  70.4869091  42.2176347
   2.8995233  70.0345700  42.9431263   2.7892494  71.2895252  42.4014824
   3.0086425  70.5391649  42.3519850  18.7397053  71.7426808  41.4553737
  19.2350719  71.0249803  41.4157758  17.9296829  71.4397606  41.3408224
  18.6940947  71.5924454  41.4327463  14.1855665  75.5924621  33.6050742
  13.3766988  75.2691295  33.5584051  14.6930574  74.8857843  33.5378990
  14.1405332  75.4405938  33.5881036  20.8048872  74.4930496  44.1430866
  21.2303944  73.9704917  43.5901291  20.4405792  75.0911333  43.6219489
  20.8135475  74.5040723  43.9839876  14.3096967  62.9792230  47.4290118
  14.4424872  62.1823224  47.7571094  14.6942119  63.5058633  48.0088394
  14.3853295  62.9392147  47.5633621  17.3829322  59.9022557  44.0271212
  16.5775285  59.7920286  44.3439050  17.2536057  60.0035012  43.1701077
  17.2449455  59.9006227  43.9479252  20.8395282  66.0668048  44.6210908
  20.2558271  66.5677255  44.2088476  21.1599576  65.5597605  43.9875232
  20.8008458  66.0659884  44.4669416  13.3790081  64.9808643  34.8969583
  14.2005776  65.1506956  34.6551278  12.9159732  65.1355904  34.1735881
  13.4321244  65.0290376  34.7541228  11.9685413  62.9751406  45.6768012
  12.5129826  62.6342532  46.2672354  12.0222349  63.8336867  45.8189297
  12.0574533  63.0506665  45.7849885  31.2025274  76.5838858  38.7004858
  30.8878715  77.2742337  39.1325280  30.6852216  76.5283640  37.9990359
  31.0789745  76.6773747  38.6601807  26.2361604  78.0662353  35.6705332
  26.9647765  77.8878308  35.2243488  26.3256497  78.9080433  35.8812510
  26.3568266  78.1646232  35.6358849  33.1747559  79.8702846  42.5669457
  33.8173467  79.9400950  43.1531372  33.4270580  79.2032068  42.0648999
  33.3069691  79.7829194  42.5796736  29.7932154  78.5847107  43.0357574
  30.1742665  77.9025278  43.4225449  28.9895438  78.2956709  42.8533239
  29.7308615  78.4414155  43.0661630  30.4288780  79.6269686  46.8477701
  31.1742372  79.4379496  46.4341126  30.0126084  80.1527924  46.2891557
  30.4773754  79.6771831  46.7042274  28.4739700  80.0552210  37.5174961
  29.1766053  79.8559958  37.0394919  28.2083889  79.2828152  37.8243804
  28.5386333  79.9115176  37.4920403  30.6199810  74.6932880  40.6471508
  30.7383378  75.1509343  39.9138810  30.4461985  73.8878141  40.3607725
  30.6118981  74.6426652  40.4972441  27.5877373  76.5483682  41.5890170
  26.7170931  76.5222403  41.5423479  27.8417715  76.3760874  40.7716015
  27.4970934  76.5193826  41.4610306  26.6818747  79.0982871  44.8756492
  26.2950501  79.1231902  45.6570022  26.1951685  78.5324549  44.4231009
  26.5531256  79.0178621  44.9244396  26.3475889  75.9849856  47.1666752
  26.9769007  76.5210156  46.8887823  26.5161752  75.8927215  48.0180318
  26.4653684  76.0511218  47.2515281  29.8399808  78.5185745  40.1352054
  30.0449401  78.4508052  40.9809051  29.5126232  79.3244566  40.0673232
  29.8215056  78.6271685  40.2511709  33.0933495  79.0717509  39.6154820
  32.4807809  79.5587911  40.0008552  33.1897670  78.3961000  40.1592471
  33.0171393  79.0435818  39.7533678  26.3545172  79.3273143  40.8529188
  25.5081217  79.4995951  40.7270537  26.3516304  78.5222487  41.1895016
  26.2292322  79.2334172  40.8840315  28.3729337  77.7016697  46.5210868
  27.8769898  77.8980371  45.8302434  29.1298399  78.1009365  46.3499669
  28.4116161  77.7894430  46.3931004  27.1616529  77.5514342  38.3936014
  26.5184847  77.4011989  38.9621152  26.8215936  77.3056688  37.6285119
  27.0161606  77.4926465  38.3639029  33.3468063  77.0848065  41.6540708
  32.8398927  76.3777204  41.5861886  34.1435497  76.7541254  41.7841785
  33.3895302  76.9321216  41.6639703  25.2829550  78.4977538  47.4290118
  25.4157456  77.7008532  47.7571094  25.6674703  79.0243941  48.0088394
  25.3585879  78.4577455  47.5633621  28.3561905  75.4207865  44.0271212
  27.5507869  75.3105594  44.3439050  28.2268641  75.5220320  43.1701077
  28.2182038  75.4191535  43.9479252   0.8426468  17.0420826  23.6651980
   0.8120472  17.8965463  23.8370250   1.4407817  16.7416118  24.2238124
   0.9263626  17.1237322  23.7726783   2.7738834  22.5411871  27.1215360
   1.9436537  22.7522514  27.2848776   2.7248086  21.7148925  26.8457643
   2.6445569  22.4501477  27.1052725   2.2692792  15.1882271  30.9165781
   1.4321213  15.2584458  31.1513376   2.2381023  15.1906766  30.0440083
   2.1411075  15.1992498  30.8225329   3.1647495  19.9292145  26.1499713
   3.8263930  19.3682814  26.0495621   2.5238907  19.4344176  26.4752404
   3.1676363  19.7728554  26.1832053   1.2802783  19.7859193  23.7281305
   1.6111000  20.3186834  23.1221400   1.8535871  19.8398081  24.3843256
   1.4136462  19.8728762  23.7359087   2.3882134  15.0269690  25.2321467
   2.1318699  14.2149632  25.0419350   3.2311448  15.0347257  25.0051654
   2.4748160  14.9081688  25.1706284   6.7945506  18.6056736  30.4576658
   6.7270007  18.6252695  29.5879245   6.7801169  19.4487063  30.6832329
   6.7824263  18.7330470  30.3629135   4.5804124  17.3801122  28.7323253
   5.1312045  16.7469191  28.9720345   4.5648239  17.9116515  29.4238757
   4.6589320  17.3650070  28.8702111   3.5111597  20.5256653  31.9772383
   3.5694720  20.9743302  32.7232359   2.8778064  20.9355466  31.5402463
   3.4262892  20.6530388  32.0224931   2.4638463  15.3274398  28.0167332
   2.2248233  15.2870232  27.1788117   2.6272364  16.1745550  28.1433053
   2.4528766  15.4466483  27.9120814   1.5019807  18.6750758  32.4502927
   2.0937647  19.3148009  32.4821125   1.9378802  17.9773795  32.7394994
   1.6538238  18.6669108  32.4983760   2.3241276  21.9835199  21.5721620
   2.7074882  22.7326555  21.8019717   1.5285389  22.2301018  21.3133609
   2.2635058  22.1304893  21.5679193  11.8159051  32.5606134  23.6651980
  11.7853056  33.4150770  23.8370250  12.4140400  32.2601426  24.2238124
  11.8996209  32.6422630  23.7726783   5.0158736  31.6481785  28.4204911
   4.1596632  31.8090283  28.4714028   5.0626390  30.7773849  28.4409972
   4.8957848  31.5432587  28.4310977   8.3252453  37.9168310  38.0265367
   9.0319220  37.4220341  38.1552301   8.5140388  38.3577392  37.2968025
   8.4580358  37.9086661  37.9374412   4.8524836  41.6069872  19.6127690
   4.5176204  42.2846794  19.1771912   5.3651706  41.2175183  19.0244561
   4.8790417  41.6494450  19.4614481   4.3929127  43.5584141  25.5538801
   4.7768506  44.1271039  25.0143576   4.3288268  42.8333651  25.0744617
   4.4402554  43.5359604  25.4032664   7.8610557  33.7073829  31.0636563
   8.4066517  34.3858915  31.1230532   7.8027434  33.5661290  30.2038144
   7.9326472  33.7865830  30.9448623   9.6375626  35.1358436  21.9370290
   9.5215152  35.8866122  22.3662428  10.4331513  34.8782389  22.1866377
   9.7380215  35.2093283  22.0374382   0.8185372  46.1140484  27.8519771
   1.4622827  46.5553648  28.2415929   1.1441627  45.3093910  27.7650030
   0.9617200  46.0605679  27.8965248   1.5205951  39.1252459  23.2239633
   1.8421793  39.6657666  22.6200941   2.1678048  38.5549230  23.3561922
   1.6632007  39.1211634  23.1546668   3.5707660  31.1268454  23.3074019
   4.2687824  31.3056581  23.7995483   3.8859992  30.6038793  22.6844409
   3.7202997  31.0762226  23.2876030   3.7595595  37.5138899  23.2953811
   4.1989230  36.9055999  23.7408584   3.6100258  37.1346272  22.5239276
   3.8017061  37.3677370  23.2472978   1.2267238  36.1082911  30.4972636
   1.8716240  35.6155354  30.1783585   1.4669015  36.2507697  31.3238715
   1.3577823  36.0560353  30.5722170   3.7653329  38.9537816  30.1479529
   4.0476572  38.1589222  29.9266285   4.4939490  39.4318404  30.1684590
   3.9142893  38.9072413  30.1182544   1.7434523  26.4960850  27.3895294
   1.4137853  26.9471994  26.7198993   1.0679525  26.4177014  27.9368300
   1.5944959  26.5511986  27.3718517   7.3604931  35.8666080  20.2484580
   7.2756227  36.7227047  20.3934149   7.8489315  35.5910404  20.9166739
   7.4193829  35.9523401  20.3686662   8.9510931  22.4846373  25.6344905
   8.6364372  23.1749852  26.0665327   8.4337873  22.4291156  24.9330405
   8.8275401  22.5781262  25.5941854   8.2923365  32.4850874  21.7482315
   7.7634836  32.7010508  22.4079621   8.8148385  33.1787013  21.6683285
   8.2911818  32.6194011  21.8337914  13.7471418  38.0597179  27.1215360
  12.9169121  38.2707822  27.2848776  13.6980670  37.2334233  26.8457643
  13.6178153  37.9686785  27.1052725   1.8081155  40.8901033  29.9563269
   1.2908097  40.5308448  29.3524577   2.5055546  40.3663207  29.9669335
   1.8346736  40.7598721  29.8693528   5.4644747  41.3395847  35.9179442
   5.5528093  41.1521987  36.7657653   5.8934460  40.6933276  35.5184289
   5.5406850  41.2158855  35.9851194   3.0315207  40.6227007  34.8997104
   2.4686042  40.2099617  35.4236766   3.7936230  40.5479913  35.3190248
   3.0609656  40.5504407  35.0390105   4.6400187  32.6279743  19.0258704
   4.8796191  32.8357727  18.2134047   4.9616028  31.8237252  19.1347648
   4.7237345  32.5393844  18.9219257  13.2425376  30.7067579  30.9165781
  12.4053797  30.7769766  31.1513376  13.2113607  30.7092074  30.0440083
  13.1143658  30.7177806  30.8225329   3.9847261  23.9669868  22.6045379
   4.7133421  23.7885823  22.1583535   4.0742154  24.8087948  22.8152557
   4.1053923  24.0653747  22.5698896   7.9655562  34.9023256  26.5077673
   8.7213077  35.3354770  26.5466581   8.0717886  34.2528026  27.0812309
   8.0925732  34.8700740  26.5975698  11.0035733  38.7296533  27.2580075
  10.5670965  38.7333276  28.0139047  10.6698648  39.4102032  26.8259653
  10.8898353  38.8308989  27.3060908   5.5764806  40.7704866  38.5823226
   6.3605223  40.8835714  38.9478968   5.3761401  39.9446003  38.7781912
   5.6630832  40.6651585  38.6657612  10.9233216  25.7710361  29.5009503
  11.5659124  25.8408466  30.0871419  11.1756236  25.1039584  28.9989045
  11.0555348  25.6836710  29.5136783   5.7335200  42.6814968  32.2289681
   4.9350446  42.4414468  32.4863550   6.1821211  42.7329361  32.9756729
   5.6809811  42.6537359  32.3774606  14.1380079  35.4477453  26.1499713
  14.7996513  34.8868121  26.0495621  13.4971491  34.9529484  26.4752404
  14.1408947  35.2913862  26.1832053   5.0256887  38.7447584  18.4580636
   5.4408035  38.4132608  17.7665132   4.1948816  38.5116487  18.3300773
   4.9644895  38.6618840  18.3371483  10.4244910  36.4642835  25.8911702
  10.6600499  36.6088034  25.0638552  10.5734473  37.2285243  26.2843215
  10.4810713  36.5981890  25.8275305  12.2535366  35.3044501  23.7281305
  12.5843584  35.8372141  23.1221400  12.8268455  35.3583389  24.3843256
  12.3869046  35.3914070  23.7359087   4.7935937  36.4275413  40.1209870
   4.0008917  36.7418925  40.3062489   4.9084864  36.6426881  39.2830654
   4.6931347  36.5059250  40.0248204   7.4667256  33.1509404  24.4104885
   7.5614110  33.8898698  24.8644511   6.8426099  32.7226879  24.8439450
   7.3876286  33.1970725  24.5413033   5.7219729  36.3295617  35.0595166
   6.2958591  35.6922861  35.2143730   5.6434533  36.3299699  34.1904824
   5.7952964  36.2360728  34.9541577   7.7190277  34.9958144  17.6441837
   7.6370439  35.0660331  18.5096824   8.3569997  35.5587888  17.4525578
   7.8010114  35.0897115  17.7431787   1.0783448  34.7618882  27.1116364
   0.8202692  33.9290617  27.0847663   1.1331931  34.9876495  26.2708864
   1.0483226  34.6716653  26.9836501   6.1584498  26.8647332  27.2120456
   5.4540825  26.3756518  27.3704376   6.2069473  26.8769807  26.3408901
   6.0614550  26.7936980  27.1059796   3.7191449  30.7879994  32.4573637
   3.3305882  30.3634211  31.8025828   3.0546147  31.0362143  32.9650664
   3.5638377  30.7618715  32.4361505  13.3614718  30.5454998  25.2321467
  13.1051283  29.7334940  25.0419350  14.2044032  30.5532565  25.0051654
  13.4480743  30.4266996  25.1706284   7.5417810  24.4854622  29.9697621
   7.9228322  23.8032793  30.3565495   6.7381095  24.1964224  29.7873286
   7.4794272  24.3421671  30.0001677   4.8230387  35.0178598  20.6550444
   5.6371026  35.3093491  20.5433215   4.7589528  34.3638460  20.0808737
   4.9333126  34.9643793  20.5539281  11.0439877  37.7004594  35.0680020
  10.8078515  36.8692659  34.9492080  11.6883106  37.6490201  35.6534864
  11.1034548  37.5702282  35.1365913   0.6938295  38.4900116  25.7822756
   1.3312242  38.2511863  26.3274549   1.1193367  38.6937274  25.0475917
   0.8514462  38.4851126  25.7539913   1.3341110  33.7102405  20.1197645
   1.7186263  33.4910112  20.8714190   1.0852731  34.5365351  20.2498722
   1.3543183  33.8000552  20.2498722   1.5009651  26.9908821  39.8360230
   1.1863092  27.7608383  39.5729792   1.1799583  26.4279077  39.2512457
   1.4068570  27.0219089  39.7101580  12.0676298  37.4849043  31.1308314
  11.7622115  38.2177100  31.4921630  11.3482514  37.0786972  30.8501100
  11.9163640  37.5330776  31.1421451   3.0759767  38.9672538  27.4616542
   3.1498776  38.8047710  28.3158392   3.8929274  39.1562728  27.2177024
   3.2076126  38.9709281  27.5514568  17.7678090  34.1242044  30.4576658
  17.7002590  34.1438003  29.5879245  17.7533752  34.9672371  30.6832329
  17.7556846  34.2515778  30.3629135   8.1774437  25.5277201  33.7817748
   8.9228029  25.3387012  33.3681173   7.7611741  26.0535439  33.2231604
   8.2259411  25.5779347  33.6382321   1.6164353  41.9307281  22.1930016
   1.9062651  41.5396263  21.4689242   2.3467834  42.1123986  22.6335291
   1.7671237  41.9001095  22.1512823  15.5536707  32.8986430  28.7323253
  16.1044629  32.2654499  28.9720345  15.5380823  33.4301823  29.4238757
  15.6321904  32.8835378  28.8702111   2.2059098  36.7325027  33.2783146
   1.7070792  37.4440795  33.3568035   3.0159322  37.0525694  33.2401309
   2.2515205  36.8851876  33.2839715   9.2565114  31.1382764  27.8427849
   8.9129879  30.4173099  28.1935099   9.3558156  30.9296615  27.0006207
   9.2207156  31.0006967  27.7699529   1.7238224  45.2804054  24.0420858
   2.3762282  44.7480496  24.2711884   1.0263833  44.9272706  24.4288732
   1.7168942  45.1493577  24.1333026   9.7178143  37.6008468  23.3851837
  10.2836175  38.2601678  23.3010380   9.0706046  37.9458166  23.8568239
   9.7056899  37.7490409  23.4424594   6.1884721  40.5447252  22.8088916
   5.9471397  39.8115112  22.4015981   6.3686054  41.0934109  22.1555250
   6.1792345  40.5169643  22.6519139   1.4184041  35.8355812  24.2209839
   1.2226824  36.4430546  23.6270142   1.6418387  35.1423756  23.7401512
   1.4218682  35.8233337  24.0625919   7.7756079  29.0574348  29.7187392
   6.9367180  29.0835627  29.4825655   7.8460446  29.7045084  30.2992738
   7.6624472  29.1570474  29.7696509   6.2225357  25.9559725  24.4515008
   6.9251710  25.7567474  23.9734966   5.9569546  25.1835668  24.7583851
   6.2871990  25.8122691  24.4260449  11.6513603  34.2642335  27.0048634
  11.5647577  34.4197761  27.8583412  11.1964083  34.9080411  26.6308039
  11.5716859  34.3818090  27.0755740   0.9853914  27.2195011  33.5045888
   0.7937111  27.2350145  34.3545312   1.8352509  27.4158685  33.4812543
   1.0829635  27.2509362  33.6269183   5.5239419  31.5853082  25.6274193
   5.2774133  31.5048833  26.4610982   5.8524542  30.8006550  25.4336721
   5.5360662  31.4579348  25.7221716   9.4187468  38.2936442  29.4160974
   9.2801827  38.9917487  29.9209717   8.6387466  38.1385098  29.0597156
   9.2830695  38.3736608  29.4387248   7.7565553  34.5932817  35.6683356
   7.7513591  33.7212633  35.6725782   8.4626547  34.7920986  35.1952812
   7.8610557  34.4936691  35.5990391   1.4836446  34.3209801  35.0397176
   1.6279822  34.9011009  34.4040286   1.8312095  34.6986097  35.7447031
   1.5563908  34.4630505  35.0496171   3.6556364  33.5199969  32.8222308
   2.9079678  33.7130984  32.4170586   3.8097889  32.6945189  32.5846429
   3.5678791  33.4265081  32.7267714   0.5564201  42.5112573  31.9058203
   0.7053765  41.9515488  31.2531607   1.3364203  42.5904574  32.2890722
   0.6938295  42.4398138  31.8655152  10.9140841  37.6514695  20.1777474
  10.5347649  36.8651833  20.1706763  10.2507086  38.2001552  20.0349118
  10.7599315  37.6159519  20.1558270   3.0817502  42.6827215  33.1842694
   3.0061173  42.0136026  33.7393482   3.0107361  43.3845004  33.6983360
   3.0598109  42.6872123  33.3419542   3.8958141  27.4150520  33.7117712
   4.3530755  28.1474494  33.8390504   3.9714469  26.9916985  34.4704967
   3.9749110  27.4607758  33.8418788   8.3685466  20.5940395  27.5811554
   8.4869035  21.0516858  26.8478857   8.1947642  19.7885656  27.2947772
   8.3604637  20.5434167  27.4312488   3.7387749  41.2028214  24.0166300
   4.5037640  40.9337858  23.6948964   3.6365839  40.7178225  24.7336363
   3.8369244  41.0917779  24.0746127   1.7740518  29.4052624  30.5559536
   0.9836593  29.2244084  30.8776871   2.1701141  28.6279576  30.5389830
   1.7157395  29.2640085  30.6012084   6.2606409  38.2340398  15.9966249
   7.0279394  38.2940523  15.5872101   5.8137718  37.6620840  15.5122568
   6.3079836  38.1576974  15.8643959   7.1584205  37.0395054  28.2818981
   6.4829207  36.8080286  28.7832368   7.1676581  36.4316237  27.6561086
   7.0602709  36.9153979  28.2635134   4.2878349  31.8812883  35.0383034
   4.2237490  32.7422839  34.9103171   4.4275536  31.5644876  34.2378586
   4.2993819  31.9613050  34.9011247   9.1600939  39.8960186  20.5129159
   9.2420777  40.7027173  20.1890610   9.6450682  39.9156146  21.2369933
   9.2438097  40.0180849  20.5716058   2.9697443  34.5745022  29.1799237
   2.5459692  34.7749521  28.4438256   2.7942298  33.7273870  29.2923537
   2.8808323  34.4793804  29.0872927   2.4709136  46.0895535  31.6420695
   2.9605066  45.3906324  31.4596359   1.8993368  45.7919405  32.2296752
   2.4593666  45.9421759  31.7021735   4.7959032  34.4454957  23.4820573
   5.3374578  33.9425338  23.9459194   5.1105591  34.3920152  22.6710058
   4.9223429  34.3634378  23.4304385   8.6676140  38.6557605  40.5947485
   9.4811005  38.3842753  40.7552618   8.5071106  38.3565145  39.7907681
   8.7646088  38.5712531  40.4992891   2.9645482  39.8372309  20.7660601
   3.0338302  38.9786847  20.9053602   3.7433937  40.0544190  20.4379626
   3.0898332  39.7425173  20.7377758   5.9448302  29.3391262  33.5342874
   6.1590271  28.7002176  32.9806228   5.3282201  29.7837086  33.1050735
   5.8853631  29.3101405  33.3893305   7.3552970  42.2610010  24.9797094
   6.9632761  41.9576725  24.2619961   7.5106042  43.0979100  24.7902048
   7.3206559  42.3393847  24.8453592   8.1087390  30.9480327  34.4726181
   7.2964071  30.6406217  34.5539353   8.5677324  30.4679327  35.0368893
   8.0567774  30.8316819  34.5680775   7.5192644  38.8259999  24.9203125
   7.1607299  38.9974642  25.6967157   7.0331355  39.2873205  24.3631123
   7.3951341  38.9198970  24.9528394   5.3363030  22.4491197  28.5230216
   4.4656588  22.4229919  28.4763526   5.5903372  22.2768390  27.7056062
   5.2456590  22.4201341  28.3950353   2.3081010  34.5059164  17.4603359
   2.5973535  35.2824047  17.7346934   2.3952809  33.9947896  18.1617859
   2.3635266  34.5451083  17.6045857   5.2040897  32.3540398  39.2554883
   5.6740528  32.9782515  39.6422757   5.2502777  31.6857374  39.8148098
   5.2808773  32.3475079  39.3954954   2.3612171  24.4597426  29.9803687
   1.8450659  23.7677617  30.1055266   1.8006100  25.1268203  29.9266285
   2.2018684  24.4560684  29.9909753   4.4304404  24.9990386  31.8096539
   4.0436157  25.0239417  32.5910069   3.9437342  24.4332065  31.3571056
   4.3016913  24.9186137  31.8584443   8.6797384  39.7163895  35.8670326
   9.3177104  39.2224091  35.5332782   8.0371475  39.6441295  35.2822553
   8.6791610  39.6322903  35.7312681  10.4054384  31.5653041  30.4336241
   9.9781992  31.4779389  29.6784341   9.7680437  31.6730816  31.0191086
  10.2483991  31.5685701  30.4081683   4.0961546  21.8857371  34.1006799
   4.7254664  22.4217671  33.8227870   4.2647409  21.7934730  34.9520365
   4.2139340  21.9518734  34.1855327   3.8975461  26.6728566  36.3733211
   4.7248890  26.4013715  36.4291825   3.9183307  27.4689408  36.7297029
   4.0228311  26.7508320  36.4348394   8.7351640  40.4083703  32.5075683
   9.5244018  40.0572768  32.6277764   8.9095238  41.2220092  32.2452316
   8.8771922  40.4769560  32.4863551   7.5885464  24.4193260  27.0692101
   7.7935058  24.3515568  27.9149098   7.2611888  25.2252081  27.0013278
   7.5700712  24.5279200  27.1851756   2.2861616  31.7473828  28.8101069
   1.9824753  31.1929816  29.4111477   1.5841036  31.9266038  28.3229103
   2.1377825  31.6918610  28.8270775   1.3427713  29.0574348  23.3745771
   1.6187447  28.3393260  22.9623338   1.9426382  29.6559268  23.1666877
   1.4720977  29.0394719  23.2826532  10.8419152  24.9725024  26.5494866
  10.2293466  25.4595426  26.9348598  10.9383327  24.2968515  27.0932518
  10.7657050  24.9443333  26.6873725   4.8438233  26.7287865  21.6492366
   5.2981980  26.8998426  22.3740210   5.3178279  26.1155976  21.2490142
   4.9806553  26.6638750  21.6966127  14.4844180  36.0441961  31.9772383
  14.5427304  36.4928610  32.7232359  13.8510648  36.4540774  31.5402463
  14.3995475  36.1715696  32.0224931   8.1243275  41.6645503  28.4127129
   7.9262963  42.1536317  27.7183340   7.5030986  41.8686744  28.9911262
   8.0030839  41.7662041  28.3950352   2.1851253  33.4330400  22.7537373
   2.9293298  33.8204676  22.9920323   2.3311949  32.5887825  22.9177861
   2.3161838  33.3660872  22.8131343   4.1030829  25.2280659  27.7869234
   3.2566874  25.4003466  27.6610584   4.1001961  24.4230002  28.1235063
   3.9777978  25.1341687  27.8180361   5.1729129  29.0055873  28.6531292
   4.6989083  28.4797635  29.1636603   5.5447265  28.4585346  28.0846154
   5.1579018  28.8471870  28.6446440  11.4365860  34.0658249  30.0638073
  11.1964082  33.2264664  30.0680499  11.9157867  34.1458415  30.7878846
  11.4718043  33.9539648  30.1712875   7.1012629  29.8992428  21.7157046
   6.5735647  29.9821172  21.0262755   7.5608337  30.6410299  21.7121691
   7.0914479  30.0213090  21.6131741  13.4371047  30.8459706  28.0167332
  13.1980817  30.8055540  27.1788117  13.6004948  31.6930858  28.1433053
  13.4261350  30.9651791  27.9120814  10.0417077  35.2309655  33.9472377
  10.7651276  34.7782182  33.7683397   9.7767039  35.5114321  33.1644705
  10.1098350  35.2060624  33.8051093   6.6549711  38.4695991  20.8466703
   7.3783910  38.9354104  20.7031277   6.2150302  38.5369601  20.0964300
   6.6965403  38.5479828  20.7151485   5.8235866  35.3293533  32.0967392
   5.2092859  34.7851584  32.3916028   6.3403151  34.8157770  31.6173208
   5.8091529  35.1729942  32.0691621   5.0632163  36.3997803  29.8311691
   4.6359771  35.7747522  29.3977126   5.0557108  36.1172725  30.6570698
   4.9991305  36.2650584  29.8891518   6.1214993  23.6024212  33.4550914
   5.6255555  23.7987886  32.7642481   6.8784056  24.0016880  33.2839716
   6.1601818  23.6901946  33.3271051   3.3917873  27.2766558  30.0454225
   3.4160360  26.7426670  29.3567005   3.6429347  26.7683867  30.7079815
   3.4327792  27.1227462  30.0418870   1.8548808  35.5698116  37.5280264
   1.0044439  35.7069830  37.6637909   2.0176936  34.8361894  37.9727965
   1.7532672  35.4812217  37.6135863  12.4752391  34.1936066  32.4502927
  13.0670231  34.8333317  32.4821125  12.9111385  33.4959103  32.7394994
  12.6270822  34.1854416  32.4983760   1.0748808  27.5934564  19.5562005
   1.3964649  27.1137646  18.9021267   1.3375751  28.4034210  19.3652816
   1.1614833  27.6424462  19.4317497   4.3045781  38.6153438  33.0760821
   3.7970872  39.1689285  33.5201451   4.0072427  38.6761728  32.2579595
   4.1850665  38.7059749  33.0209278   6.4707963  26.9806758  31.9185484
   6.8963034  26.5279284  31.3069010   5.8564956  26.4266829  32.1950271
   6.4436608  26.8320734  31.8690509   6.9153561  42.5316696  21.0064764
   6.1982871  42.3577558  20.5412002   7.5660298  42.2969268  20.4740250
   6.9055411  42.4712489  20.8593982   4.9102186  23.4521858  25.3276061
   4.2670504  23.3019504  25.8961199   4.5701593  23.2064203  24.5625165
   4.7647263  23.3933980  25.2979076   9.5001532  31.4081285  24.7506069
   8.8292722  31.9510987  24.6219135  10.1941282  31.8776140  24.5087764
   9.5030400  31.5579556  24.6961597   3.5488266  43.5477997  29.9817828
   3.3253920  42.7896826  30.3501854   3.0598109  43.5776018  29.2598267
   3.4431715  43.4400221  29.9294569   9.6629660  27.8637168  27.6596443
  10.0157270  27.4366891  28.3342241   8.8044461  27.7788012  27.7897519
   9.5879104  27.7881909  27.7791453   7.6612925  31.1272537  31.6081285
   7.6410853  30.9455832  32.4616064   7.7092126  31.9984555  31.5840869
   7.6647566  31.2289075  31.7304580   5.6059255  37.7159729  37.5329761
   5.5655110  37.0709406  36.9474917   6.4182573  37.6596346  37.8455173
   5.7202409  37.6118696  37.4926711   2.1966723  43.7678455  27.4354912
   1.7827121  43.1052585  27.0458754   2.8814097  43.9156313  26.9150606
   2.2365094  43.6919113  27.3011409   5.5632017  42.9268540  28.1878529
   5.1648300  43.0370810  27.4199349   4.9483236  43.1350606  28.7705089
   5.4130906  42.9742108  28.1609828   4.1359919  29.5342688  21.0552669
   3.5424758  29.8559684  20.5037236   4.1735197  28.6883783  20.8473775
   4.0534308  29.4567016  20.9435440  11.0953720  22.9855580  28.5880755
  10.5884584  22.2784720  28.5201933  11.8921153  22.6548769  28.7181832
  11.1380959  22.8328731  28.5979750   7.0117735  29.4922192  24.4854419
   6.7831428  29.5154894  23.6432777   7.2715812  28.6679659  24.6049429
   7.0163923  29.3738272  24.3779617   1.2936964  31.3456665  34.0879519
   0.7815867  30.7377848  34.4464550   1.1216460  32.0613258  34.5553495
   1.1926601  31.3619965  34.2095743  13.2973860  37.5020507  21.5721620
  13.6807465  38.2511863  21.8019717  12.5017973  37.7486326  21.3133609
  13.2367642  37.6490200  21.5679193   5.1706034  29.2680910  36.5281775
   5.7277464  29.0394719  35.8960240   4.8467099  30.0286576  36.2516987
   5.2052444  29.3464747  36.3938272   2.8889152  32.3548563  37.4933782
   3.6400478  32.6700240  37.8073336   3.0811728  32.1527734  36.6667703
   3.0280566  32.3715945  37.4177177   2.1089151  30.1739938  19.1481998
   2.4888116  30.1919568  18.3633113   1.3681747  30.6193927  19.0272846
   2.0557989  30.2421713  19.0145567   9.7374442  28.4822130  24.7357577
   9.7368668  28.3270786  25.5941854   9.5330622  29.3285117  24.6798963
   9.7074219  28.5842750  24.8545517   7.4615294  33.1619631  28.3893784
   7.9568959  32.4442626  28.3497804   6.6515069  32.8590429  28.2748271
   7.4159187  33.0117278  28.3667510   2.9073905  37.0117445  20.5390788
   2.0985228  36.6884118  20.4924098   3.4148814  36.3050667  20.4719037
   2.8623572  36.8598761  20.5221083   9.5267113  35.9123319  31.0770913
   9.9522184  35.3897741  30.5241338   9.1624032  36.5104156  30.5559536
   9.5353715  35.9233546  30.9179923   6.1145712  39.6257583  27.4072070
   6.5856890  40.3397846  27.5762055   6.4505891  39.0256333  27.9431940
   6.2340827  39.6429047  27.5104446   8.2022697  41.2358896  39.5864142
   8.3119662  40.4467457  39.9420890   8.5313593  41.1464833  38.7838480
   8.2675102  41.1064749  39.5206533   3.0315207  24.3985054  34.3630165
   3.1643113  23.6016047  34.6911141   3.4160360  24.9251457  34.9428441
   3.1071536  24.3584970  34.4973668   6.7519658  39.4175517  34.1699763
   6.2040604  38.7933401  33.9019828   7.2132687  39.6069789  33.4543842
   6.7386868  39.3534567  34.0250194   6.1047562  21.3215380  30.9611258
   5.2993526  21.2113109  31.2779097   5.9754298  21.4227836  30.1041124
   5.9667695  21.3199050  30.8819299   9.5613523  27.4860872  31.5550955
   8.9776511  27.9870078  31.1428523   9.8817817  26.9790428  30.9215279
   9.5226698  27.4852707  31.4009462   2.1008322  26.4001467  21.8309630
   2.9224016  26.5699779  21.5891325   1.6377973  26.5548728  21.1075928
   2.1539484  26.4483200  21.6881274   0.6903654  24.3944229  32.6108059
   1.2348067  24.0535356  33.2012401   0.7440589  25.2529690  32.7529343
   0.7792773  24.4699488  32.7189932   6.3177985  40.4226590  30.7009104
   7.1376358  40.2789556  30.9625399   6.0372062  41.0472789  31.2425542
   6.3974728  40.4936942  30.8197044  22.7891635  48.0791442  23.6651980
  22.7585639  48.9336078  23.8370250  23.3872984  47.7786734  24.2238124
  22.8728793  48.1607938  23.7726783  15.9891320  47.1667093  28.4204911
  15.1329215  47.3275591  28.4714028  16.0358974  46.2959157  28.4409972
  15.8690431  47.0617895  28.4310977  10.3732460  56.7029811  24.1842142
   9.6215359  56.3245349  23.9558188  10.8218471  56.7348244  23.4360953
  10.3282126  56.6515418  24.0399645  19.2985036  53.4353618  38.0265367
  20.0051804  52.9405649  38.1552301  19.4872972  53.8762700  37.2968025
  19.4312942  53.4271969  37.9374412  15.8257419  57.1255180  19.6127690
  15.4908788  57.8032102  19.1771912  16.3384290  56.7360491  19.0244561
  15.8523001  57.1679758  19.4614481  15.3661711  59.0769449  25.5538801
  15.7501090  59.6456347  25.0143576  15.3020852  58.3518959  25.0744617
  15.4135138  59.0544912  25.4032664  18.8343141  49.2259137  31.0636563
  19.3799101  49.9044223  31.1230532  18.7760017  49.0846597  30.2038144
  18.9059055  49.3051138  30.9448623  11.9517216  56.7148203  26.4504915
  12.0527579  55.9048557  26.7602043  11.3558961  56.6205149  25.8204593
  11.8789754  56.5813231  26.4031153  20.6108210  50.6543744  21.9370290
  20.4947735  51.4051430  22.3662428  21.4064096  50.3967697  22.1866377
  20.7112799  50.7278591  22.0374382  11.7917955  61.6325792  27.8519771
  12.4355411  62.0738956  28.2415929  12.1174211  60.8279218  27.7650030
  11.9349784  61.5790987  27.8965248   5.1482260  52.7368489  26.0757249
   4.9132444  51.9036142  25.9689517   5.2867901  53.0173155  25.2618450
   5.1337922  52.6551993  25.9399604   7.4472347  44.9054220  28.9741556
   6.8277379  44.3146867  28.8051571   7.3456211  45.4965655  28.3405880
   7.3410023  44.9058302  28.8546546  12.4938535  54.6437767  23.2239633
  12.8154376  55.1842974  22.6200941  13.1410632  54.0734538  23.3561922
  12.6364590  54.6396942  23.1546668  14.5440243  46.6453762  23.3074019
  15.2420408  46.8241889  23.7995483  14.8592576  46.1224101  22.6844409
  14.6935580  46.5947534  23.2876030   7.1741480  48.4506502  31.2185125
   7.0500177  49.0368947  31.8534944   7.8259765  47.9566697  31.5197400
   7.2515130  48.4645306  31.3571055  14.7328178  53.0324207  23.2953811
  15.1721814  52.4241307  23.7408584  14.5832841  52.6531580  22.5239276
  14.7749644  52.8862678  23.2472978  12.1999821  51.6268219  30.4972636
  12.8448824  51.1340662  30.1783585  12.4401599  51.7693005  31.3238715
  12.3310407  51.5745661  30.5722170  14.7385913  54.4723124  30.1479529
  15.0209156  53.6774530  29.9266285  15.4672073  54.9503712  30.1684590
  14.8875477  54.4257721  30.1182544  12.7167107  42.0146158  27.3895294
  12.3870437  42.4657302  26.7198993  12.0412108  41.9362322  27.9368300
  12.5677543  42.0697294  27.3718517  18.3337515  51.3851388  20.2484580
  18.2488810  52.2412355  20.3934149  18.8221898  51.1095712  20.9166739
  18.3926412  51.4708709  20.3686662  19.9243514  38.0031681  25.6344905
  19.6096955  38.6935160  26.0665327  19.4070456  37.9476463  24.9330405
  19.8007985  38.0966570  25.5941854  19.2655948  48.0036182  21.7482315
  18.7367420  48.2195816  22.4079621  19.7880968  48.6972321  21.6683285
  19.2644401  48.1379319  21.8337914  24.7204001  53.5782487  27.1215360
  23.8901704  53.7893130  27.2848776  24.6713253  52.7519541  26.8457643
  24.5910737  53.4872093  27.1052725  11.1555556  51.8999399  20.5489783
  10.5712771  52.4049430  20.9555647  10.7525651  51.6741786  19.8086375
  11.0094860  51.9407647  20.4994808   6.7099585  57.6154160  27.3513455
   6.2267163  58.3404650  27.3273038   7.5222903  57.9130290  27.4623612
   6.7590332  57.7656514  27.3640734  12.7813739  56.4086341  29.9563269
  12.2640680  56.0493756  29.3524577  13.4788130  55.8848515  29.9669335
  12.8079320  56.2784029  29.8693528  16.4377331  56.8581155  35.9179442
  16.5260677  56.6707295  36.7657653  16.8667043  56.2118584  35.5184289
  16.5139433  56.7344163  35.9851194  14.0047790  56.1412315  34.8997104
  13.4418625  55.7284925  35.4236766  14.7668814  56.0665220  35.3190248
  14.0342239  56.0689715  35.0390105  15.6132770  48.1465051  19.0258704
  15.8528774  48.3543035  18.2134047  15.9348611  47.3422560  19.1347648
  15.6969928  48.0579152  18.9219257  10.9223061  40.0758447  22.8718242
  11.6769029  40.4436764  22.6335292  10.7450595  40.4498001  23.6397421
  11.0077539  40.1856635  22.9503130   9.5643782  58.1310336  27.5033735
  10.2664361  57.6162325  27.5606491   9.4841265  58.4584487  28.3080610
   9.6567542  58.1024562  27.6306527  24.2157959  46.2252887  30.9165781
  23.3786381  46.2955074  31.1513376  24.1846190  46.2277382  30.0440083
  24.0876242  46.2363114  30.8225329  10.6122689  48.3685923  36.6314150
  10.7843192  48.2591818  37.4799431  11.1492046  49.0140328  36.3945342
  10.7167692  48.4477925  36.7219246   9.2780125  42.4828766  19.5696355
   9.0955699  42.7000647  18.7437348  10.1405738  42.5967778  19.6254969
   9.3784715  42.5318664  19.4550842   8.8894557  54.3216688  27.0119343
   9.7283457  54.5539621  27.0593104   8.9206327  53.4520999  26.9426378
   9.0176275  54.2273634  27.0083987   9.5147260  54.7417563  31.3132648
  10.0545485  54.5988694  31.9836021   8.8317207  55.1414314  31.6816674
   9.4939414  54.7797234  31.4667070  14.9579845  39.4855176  22.6045379
  15.6866005  39.3071131  22.1583535  15.0474737  40.3273256  22.8152557
  15.0786507  39.5839055  22.5698896  18.9388145  50.4208564  26.5077673
  19.6945660  50.8540078  26.5466581  19.0450470  49.7713334  27.0812309
  19.0658316  50.3886048  26.5975698  21.9768316  54.2481841  27.2580075
  21.5403548  54.2518583  28.0139047  21.6431232  54.9287340  26.8259653
  21.8630936  54.3494297  27.3060908  16.5497390  56.2890174  38.5823226
  17.3337807  56.4021022  38.9478968  16.3493985  55.4631311  38.7781912
  16.6363415  56.1836893  38.6657612   4.9184405  50.9617854  31.4667070
   4.6522821  50.1456971  31.6258060   4.9322970  51.0071009  30.5962585
   4.8809128  50.8474759  31.3620552  21.8965799  41.2895669  29.5009503
  22.5391708  41.3593773  30.0871419  22.1488820  40.6224892  28.9989045
  22.0287931  41.2022017  29.5136783   8.8242152  45.7602938  18.0818828
   8.1100330  45.4741118  18.4941260   9.3086121  46.0999564  18.7225215
   8.7901516  45.7684588  18.2374463   9.6683012  44.4996232  34.1134077
   8.9754809  44.0293212  34.3594809  10.2843339  44.2734537  34.6875785
   9.6567542  44.3963364  34.2343230  16.7067783  58.2000276  32.2289681
  15.9083029  57.9599776  32.4863550  17.1553795  58.2514669  32.9756729
  16.6542395  58.1722667  32.3774606  25.1112663  50.9662761  26.1499713
  25.7729097  50.4053429  26.0495621  24.4704075  50.4714792  26.4752404
  25.1141530  50.8099170  26.1832053  15.9989470  54.2632892  18.4580636
  16.4140619  53.9317916  17.7665132  15.1681400  54.0301795  18.3300773
  15.9377479  54.1804148  18.3371483   5.3277819  51.7476633  28.7478814
   5.1453392  51.7223519  27.8951106   6.0627488  52.2175571  28.7867723
   5.4091883  51.8137996  28.6276732  21.3977493  51.9828143  25.8911702
  21.6333082  52.1273342  25.0638552  21.5467057  52.7470551  26.2843215
  21.4543297  52.1167198  25.8275305   8.3923571  48.4661636  35.2560923
   9.1163543  48.4514667  35.7425817   8.4939707  49.1756991  34.7582891
   8.5141780  48.5686339  35.2539709  23.2267950  50.8229809  23.7281305
  23.5576167  51.3557449  23.1221400  23.8001038  50.8768697  24.3843256
  23.3601629  50.9099378  23.7359087  15.7668520  51.9460721  40.1209870
  14.9741501  52.2604233  40.3062489  15.8817447  52.1612189  39.2830654
  15.6663931  52.0244558  40.0248204  18.4399839  48.6694712  24.4104885
  18.5346694  49.4084006  24.8644511  17.8158683  48.2412187  24.8439450
  18.3608869  48.7156033  24.5413033  16.6952313  51.8480925  35.0595166
  17.2691175  51.2108169  35.2143730  16.6167117  51.8485007  34.1904824
  16.7685548  51.7546036  34.9541577   5.2948729  48.6270134  28.8977881
   5.8722232  48.4906585  29.5370126   4.5962791  48.1705918  29.1523465
   5.2769751  48.5392400  29.0300170  18.6922860  50.5143452  17.6441837
  18.6103023  50.5845639  18.5096824  19.3302581  51.0773196  17.4525578
  18.7742698  50.6082423  17.7431787  12.0516032  50.2804190  27.1116364
  11.7935276  49.4475925  27.0847663  12.1064514  50.5061803  26.2708864
  12.0215809  50.1901961  26.9836501  17.1317082  42.3832640  27.2120456
  16.4273408  41.8941826  27.3704376  17.1802056  42.3955115  26.3408901
  17.0347133  42.3122288  27.1059796  11.0250744  47.8341952  27.5981259
  10.4500335  47.9934121  28.2345219  10.6486420  47.1977361  27.1349709
  10.8853556  47.7639765  27.6235817  14.6924032  46.3065301  32.4573637
  14.3038465  45.8819519  31.8025828  14.0278731  46.5547451  32.9650664
  14.5370960  46.2804023  32.4361505  24.3347302  46.0640306  25.2321467
  24.0783866  45.2520248  25.0419350  25.1776616  46.0717873  25.0051654
  24.4213327  45.9452304  25.1706284   0.7707563  47.4782027  25.6125699
   0.8567814  47.1013895  26.3939229   1.3983360  47.1042473  25.1345657
   0.8764114  47.3667509  25.6571176  18.5150394  40.0039930  29.9697621
  18.8960906  39.3218101  30.3565495  17.7113678  39.7149532  29.7873286
  18.4526856  39.8606979  30.0001677  15.7962971  50.5363906  20.6550444
  16.6103609  50.8278799  20.5433215  15.7322112  49.8823768  20.0808737
  15.9065710  50.4829101  20.5539281  22.0172461  53.2189902  35.0680020
  21.7811098  52.3877967  34.9492080  22.6615690  53.1675509  35.6534864
  22.0767132  53.0887590  35.1365913  11.6670879  54.0085423  25.7822756
  12.3044826  53.7697171  26.3274549  12.0925951  54.2122582  25.0475917
  11.8247045  54.0036434  25.7539913   6.3583521  56.2473760  29.6657060
   6.3987667  56.5188611  28.8376839   6.9178045  56.7715668  30.0814848
   6.4466867  56.3649515  29.6048948  12.3073694  49.2287713  20.1197645
  12.6918847  49.0095420  20.8714190  12.0585314  50.0550659  20.2498722
  12.3275767  49.3185860  20.2498722  12.4742234  42.5094128  39.8360230
  12.1595675  43.2793691  39.5729792  12.1532167  41.9464384  39.2512457
  12.3801153  42.5404397  39.7101580  23.0408881  53.0034351  31.1308314
  22.7354699  53.7362408  31.4921630  22.3215097  52.5972280  30.8501100
  22.8896224  53.0516084  31.1421451  14.0492351  54.4857846  27.4616542
  14.1231359  54.3233018  28.3158392  14.8661857  54.6748036  27.2177024
  14.1808710  54.4894588  27.5514568   7.8098108  54.8315709  24.4910986
   6.9836225  55.0777446  24.3645265   7.8710099  54.7527790  25.3573044
   7.6972275  54.8560658  24.5999930  10.0274131  40.8984650  25.4506426
   9.1596557  40.9707249  25.5164035  10.3149336  41.7006729  25.6394401
   9.9413879  41.0278797  25.4881193  19.1507020  41.0462509  33.7817748
  19.8960612  40.8572320  33.3681173  18.7344325  41.5720747  33.2231604
  19.1991994  41.0964655  33.6382321  12.5896937  57.4492589  22.1930016
  12.8795235  57.0581570  21.4689242  13.3200417  57.6309294  22.6335291
  12.7403821  57.4186403  22.1512823  26.5269291  48.4171738  28.7323253
  27.0777213  47.7839807  28.9720345  26.5113406  48.9487131  29.4238757
  26.6054487  48.4020686  28.8702111  13.1791682  52.2510335  33.2783146
  12.6803375  52.9626103  33.3568035  13.9891906  52.5711002  33.2401309
  13.2247789  52.4037184  33.2839715  10.5302852  59.4259972  25.2590165
  10.3103148  59.1357326  26.0516832  10.3097374  58.7674927  24.7308078
  10.4650446  59.2859680  25.2979074   9.4419799  51.5133288  27.5245867
   9.1533048  50.8870759  28.0591594  10.3103147  51.4553576  27.5910548
   9.5280051  51.4120832  27.6136822  20.2297697  46.6568071  27.8427849
  19.8862463  45.9358407  28.1935099  20.3290740  46.4481923  27.0006207
  20.1939740  46.5192275  27.7699529  12.6970808  60.7989362  24.0420858
  13.3494866  60.2665804  24.2711884  11.9996417  60.4458014  24.4288732
  12.6901526  60.6678885  24.1333026   9.6452073  53.1528539  23.4488232
  10.3998041  53.5341578  23.6623695   9.0522685  53.6039683  23.9034929
   9.6688786  53.2757367  23.5471111  20.6910726  53.1193776  23.3851837
  21.2568759  53.7786985  23.3010380  20.0438630  53.4643474  23.8568239
  20.6789483  53.2675717  23.4424594  12.1058740  45.1091380  38.5745444
  11.2958516  45.4149159  38.4635287  12.5833427  45.8296962  38.6898028
  12.0562219  45.2605981  38.5752515  10.9650299  54.3237100  28.8228348
  10.4431053  54.4637392  29.5080212  11.3524320  53.5647765  29.0130465
  10.9454000  54.2322624  28.9529424   7.9541483  44.3742909  22.8923302
   7.6666279  44.0044180  22.1555249   8.6411952  44.8437765  22.6307007
   8.0130381  44.3889879  22.7438378  17.1617304  56.0632560  22.8088916
  16.9203980  55.3300420  22.4015981  17.3418637  56.6119417  22.1555250
  17.1524928  56.0354951  22.6519139  12.3916625  51.3541120  24.2209839
  12.1959408  51.9615854  23.6270142  12.6150971  50.6609064  23.7401512
  12.3951266  51.3418645  24.0625919  10.7895155  48.2395857  24.3390707
  11.5117807  48.4037016  23.8794513  10.3103148  48.9605522  24.2330047
  10.8258886  48.3694087  24.2556321  18.7488663  44.5759656  29.7187392
  17.9099763  44.6020935  29.4825655  18.8193030  45.2230392  30.2992738
  18.6357056  44.6755782  29.7696509   8.4402772  50.6453930  33.4444847
   8.9523869  50.9238183  32.7953607   8.1539114  51.3843224  33.8107660
   8.4737635  50.7956284  33.4034725  17.1957941  41.4745033  24.4515008
  17.8984294  41.2752782  23.9734966  16.9302130  40.7020976  24.7583851
  17.2604573  41.3307999  24.4260449  22.6246186  49.7827643  27.0048634
  22.5380161  49.9383069  27.8583412  22.1696666  50.4265719  26.6308039
  22.5449443  49.9003398  27.0755740   5.5269678  45.1524122  23.7408583
   5.6285814  45.9550283  24.0689559   6.3225565  44.9511458  23.4431664
   5.6597584  45.2410020  23.7443939  11.9586497  42.7380318  33.5045888
  11.7669694  42.7535453  34.3545312  12.8085093  42.9343993  33.4812543
  12.0562219  42.7694670  33.6269183   6.3433410  45.2671300  31.4829705
   6.2018902  44.4155241  31.6074213   6.6273973  45.3099961  30.6591911
   6.3641256  45.1471050  31.3797329  16.4972002  47.1038390  25.6274193
  16.2506717  47.0234141  26.4610982  16.8257126  46.3191858  25.4336721
  16.5093246  46.9764655  25.7221716  20.3920051  53.8121749  29.4160974
  20.2534411  54.5102795  29.9209717  19.6120049  53.6570406  29.0597156
  20.2563278  53.8921916  29.4387248  18.7298136  50.1118125  35.6683356
  18.7246175  49.2397941  35.6725782  19.4359130  50.3106294  35.1952812
  18.8343140  50.0121999  35.5990391  12.4569030  49.8395109  35.0397176
  12.6012405  50.4196317  34.4040286  12.8044678  50.2171405  35.7447031
  12.5296491  49.9815813  35.0496171  14.6288947  49.0385277  32.8222308
  13.8812261  49.2316291  32.4170586  14.7830472  48.2130497  32.5846429
  14.5411375  48.9450388  32.7267714  11.5296785  58.0297881  31.9058203
  11.6786348  57.4700796  31.2531607  12.3096787  58.1089882  32.2890722
  11.6670878  57.9583446  31.8655152  21.8873424  53.1700003  20.1777474
  21.5080233  52.3837141  20.1706763  21.2239670  53.7186860  20.0349118
  21.7331899  53.1344827  20.1558270  14.0550085  58.2012523  33.1842694
  13.9793756  57.5321334  33.7393482  13.9839945  58.9030312  33.6983360
  14.0330692  58.2057431  33.3419542  14.8690724  42.9335828  33.7117712
  15.3263338  43.6659802  33.8390504  14.9447053  42.5102293  34.4704967
  14.9481694  42.9793066  33.8418788   7.1123715  43.1801648  34.8007155
   6.5765905  42.5682006  35.1167922   7.1741480  43.7549783  35.4540822
   7.0419348  43.1748575  34.9442582  19.3418050  36.1125703  27.5811554
  19.4601618  36.5702166  26.8478857  19.1680226  35.3070964  27.2947772
  19.3337221  36.0619475  27.4312488  14.7120332  56.7213522  24.0166300
  15.4770223  56.4523166  23.6948964  14.6098422  56.2363533  24.7336363
  14.8101828  56.6103087  24.0746127  12.7473102  44.9237932  30.5559536
  11.9569177  44.7429392  30.8776871  13.1433725  44.1464884  30.5389830
  12.6889978  44.7825393  30.6012084  17.2338993  53.7525706  15.9966249
  18.0011978  53.8125831  15.5872101  16.7870302  53.1806147  15.5122568
  17.2812420  53.6762282  15.8643959  18.1316788  52.5580362  28.2818981
  17.4561790  52.3265594  28.7832368  18.1409164  51.9501545  27.6561086
  18.0335293  52.4339287  28.2635134  15.2610932  47.3998191  35.0383034
  15.1970074  48.2608147  34.9103171  15.4008120  47.0830184  34.2378586
  15.2726402  47.4798357  34.9011247  20.1333523  55.4145494  20.5129159
  20.2153360  56.2212480  20.1890610  20.6183265  55.4341453  21.2369933
  20.2170681  55.5366157  20.5716058  13.9430026  50.0930330  29.1799237
  13.5192275  50.2934829  28.4438256  13.7674881  49.2459178  29.2923537
  13.8540907  49.9979112  29.0872927  13.4441720  61.6080843  31.6420695
  13.9337650  60.9091632  31.4596359  12.8725952  61.3104713  32.2296752
  13.4326250  61.4607067  31.7021735   9.2312471  50.5882382  24.6127210
   9.3877090  50.5229184  25.4683202   9.5713064  51.3630934  24.4005889
   9.3045706  50.6931580  24.7081804  15.7691616  49.9640265  23.4820573
  16.3107161  49.4610646  23.9459194  16.0838175  49.9105460  22.6710058
  15.8956013  49.8819686  23.4304385  19.6408723  54.1742913  40.5947485
  20.4543589  53.9028061  40.7552618  19.4803690  53.8750453  39.7907681
  19.7378672  54.0897839  40.4992891  13.9378066  55.3557617  20.7660601
  14.0070886  54.4972155  20.9053602  14.7166521  55.5729498  20.4379626
  14.0630916  55.2610481  20.7377758  16.9180885  44.8576570  33.5342874
  17.1322855  44.2187484  32.9806228  16.3014784  45.3022394  33.1050735
  16.8586214  44.8286713  33.3893305  18.3285553  57.7795318  24.9797094
  17.9365345  57.4762033  24.2619961  18.4838625  58.6164408  24.7902048
  18.2939143  57.8579155  24.8453592   5.8046733  47.7717332  24.9287977
   6.1845698  48.1901877  24.2648244   5.2302097  48.3530788  25.2356820
   5.7758058  47.9195191  24.8764718  19.0819973  46.4665635  34.4726181
  18.2696655  46.1591525  34.5539353  19.5409908  45.9864635  35.0368893
  19.0300358  46.3502127  34.5680775  18.4925228  54.3445307  24.9203125
  18.1339883  54.5159950  25.6967157  18.0063939  54.8058512  24.3631123
  18.3683925  54.4384278  24.9528394  16.3095614  37.9676505  28.5230216
  15.4389172  37.9415226  28.4763526  16.5635955  37.7953698  27.7056062
  16.2189174  37.9386649  28.3950353  13.2813593  50.0244472  17.4603359
  13.5706118  50.8009355  17.7346934  13.3685392  49.5133204  18.1617859
  13.3367850  50.0636391  17.6045857  16.1773481  47.8725706  39.2554883
  16.6473112  48.4967823  39.6422757  16.2235361  47.2042682  39.8148098
  16.2541357  47.8660387  39.3954954  13.3344754  39.9782734  29.9803687
  12.8183243  39.2862925  30.1055266  12.7738683  40.6453511  29.9266285
  13.1751268  39.9745991  29.9909753  15.4036988  40.5175694  31.8096539
  15.0168741  40.5424725  32.5910069  14.9169925  39.9517372  31.3571056
  15.2749497  40.4371445  31.8584443  19.6529967  55.2349203  35.8670326
  20.2909688  54.7409398  35.5332782  19.0104059  55.1626603  35.2822553
  19.6524194  55.1508211  35.7312681  21.3786967  47.0838349  30.4336241
  20.9514575  46.9964697  29.6784341  20.7413020  47.1916124  31.0191086
  21.2216575  47.0871009  30.4081683  15.0694130  37.4042679  34.1006799
  15.6987247  37.9402979  33.8227870  15.2379992  37.3120038  34.9520365
  15.1871924  37.4704042  34.1855327  14.8708044  42.1913874  36.3733211
  15.6981474  41.9199023  36.4291825  14.8915890  42.9874716  36.7297029
  14.9960894  42.2693628  36.4348394  19.7084224  55.9269011  32.5075683
  20.4976602  55.5758076  32.6277764  19.8827822  56.7405400  32.2452316
  19.8504505  55.9954868  32.4863551   9.4477534  49.3377737  29.5603471
   8.6065541  49.2381611  29.7682365   9.6567542  50.1073217  29.9117792
   9.3542227  49.4369780  29.6430786   6.9253101  46.9597274  27.3888222
   6.5309799  47.0340286  26.6138332   6.3693218  47.3455220  27.9396584
   6.7855914  47.0279048  27.3555882  18.5618048  39.9378568  27.0692101
  18.7667641  39.8700876  27.9149098  18.2344472  40.7437389  27.0013278
  18.5433296  40.0464508  27.1851756  13.2594199  47.2659136  28.8101069
  12.9557337  46.7115124  29.4111477  12.5573620  47.4451346  28.3229103
  13.1110409  47.2103918  28.8270775  12.3160296  44.5759656  23.3745771
  12.5920031  43.8578568  22.9623338  12.9158966  45.1744576  23.1666877
  12.4453561  44.5580027  23.2826532  11.3212550  54.4808857  33.5173167
  11.2132905  54.4910919  34.3835225  11.5308332  55.3063637  33.3278121
  11.3362661  54.6049932  33.6177258  21.8151736  40.4910332  26.5494866
  21.2026049  40.9780734  26.9348598  21.9115911  39.8153823  27.0932518
  21.7389633  40.4628641  26.6873725  15.8170817  42.2473173  21.6492366
  16.2714563  42.4183734  22.3740210  16.2910862  41.6341284  21.2490142
  15.9539137  42.1824058  21.6966127   9.3386342  51.7321499  30.9795104
   8.7474275  52.3730997  30.9498119  10.1007366  52.1559116  30.9526404
   9.3634603  51.8897338  30.9710252   9.7346965  42.8923497  31.6463122
  10.1948446  42.9662426  32.3838246   9.7803072  43.6904751  31.2962943
   9.8097520  43.0217644  31.7035878  11.3830315  43.5590192  36.2135149
  10.9915880  42.9123539  36.6490927  11.5516177  44.1501627  36.8329404
  11.3501225  43.5504460  36.3697855  25.4576764  51.5627269  31.9772383
  25.5159887  52.0113918  32.7232359  24.8243231  51.9726082  31.5402463
  25.3728059  51.6901003  32.0224931  19.0975858  57.1830811  28.4127129
  18.8995547  57.6721625  27.7183340  18.4763569  57.3872052  28.9911262
  18.9763423  57.2847349  28.3950352  13.1583837  48.9515708  22.7537373
  13.9025882  49.3389984  22.9920323  13.3044533  48.1073133  22.9177861
  13.2894422  48.8846180  22.8131343  15.0763412  40.7465966  27.7869234
  14.2299457  40.9188774  27.6610584  15.0734545  39.9415310  28.1235063
  14.9510562  40.6526995  27.8180361  16.1461713  44.5241181  28.6531292
  15.6721667  43.9982943  29.1636603  16.5179848  43.9770654  28.0846154
  16.1311601  44.3657177  28.6446440   6.5234743  46.5212688  34.0214838
   7.3860356  46.4208397  33.9352168   6.1926526  45.9407397  33.4600410
   6.6019939  46.4204314  33.9260244  22.4098443  49.5843557  30.0638073
  22.1696666  48.7449972  30.0680499  22.8890450  49.6643723  30.7878846
  22.4450627  49.4724956  30.1712875  18.0745212  45.4177735  21.7157046
  17.5468231  45.5006479  21.0262755  18.5340920  46.1595607  21.7121691
  18.0647063  45.5398398  21.6131741  24.4103630  46.3645014  28.0167332
  24.1713400  46.3240848  27.1788117  24.5737531  47.2116166  28.1433053
  24.3993934  46.4837099  27.9120814  21.0149660  50.7494963  33.9472377
  21.7383859  50.2967489  33.7683397  20.7499623  51.0299629  33.1644705
  21.0830934  50.7245932  33.8051093   9.8836529  45.3455137  30.6825256
   9.2589599  45.3573529  30.0751209   9.5482124  45.8215312  31.3316497
   9.7422021  45.4173654  30.6881825  10.0678277  43.6880255  16.7397941
   9.7191082  44.3399980  17.2029491   9.5874723  43.6737368  16.0121813
   9.9448521  43.7823309  16.7009033   6.5962204  53.4055597  32.1229021
   6.0662129  52.7148036  32.1723995   6.8687298  53.3965782  31.2941729
   6.5586927  53.3022728  32.0076437  17.6282295  53.9881299  20.8466703
  18.3516494  54.4539412  20.7031277  17.1882886  54.0554909  20.0964300
  17.6697987  54.0665136  20.7151485  16.7968450  50.8478841  32.0967392
  16.1825443  50.3036892  32.3916028  17.3135735  50.3343078  31.6173208
  16.7824112  50.6915250  32.0691621  16.0364747  51.9183111  29.8311691
  15.6092355  51.2932830  29.3977126  16.0289691  51.6358033  30.6570698
  15.9723888  51.7835892  29.8891518   9.1527274  46.9548284  32.9000125
   9.3120761  46.1991609  33.3051847   8.9720168  47.5039224  33.5540863
   9.1492633  46.9242098  33.0562831  17.0947577  39.1209520  33.4550914
  16.5988138  39.3173194  32.7642481  17.8516639  39.5202188  33.2839716
  17.1334402  39.2087254  33.3271051  14.3650457  42.7951866  30.0454225
  14.3892944  42.2611978  29.3567005  14.6161930  42.2869175  30.7079815
  14.4060375  42.6412770  30.0418870   1.8758046  50.0783361  29.4797369
   1.7701496  50.0330205  28.6149453   1.1258266  50.4237141  29.7611654
   1.7493649  50.1224269  29.3934699  10.6451779  41.5222684  29.4259969
  10.6850150  42.0231891  30.1394677   9.8201444  41.6133078  29.1565892
  10.5291305  41.6104500  29.4910507  12.8281392  51.0883424  37.5280264
  11.9777022  51.2255138  37.6637909  12.9909519  50.3547202  37.9727965
  12.7265255  50.9997525  37.6135863  12.0666142  48.0383194  31.7233868
  11.2358072  48.2057012  31.5169116  12.0117659  47.6619145  32.5082753
  11.9355557  48.0072925  31.8082396   9.8749926  41.5292087  37.3590279
  10.5002629  40.9854220  37.6319711   9.4200405  41.0487004  36.7898069
   9.8998186  41.3781568  37.3151873  10.4402186  46.3138785  22.2523986
  10.5805147  46.8111250  22.9552627  10.9384719  45.6125080  22.3938200
  10.5343267  46.2840764  22.3775565  10.4702408  47.1805896  19.5816563
  11.1047488  47.7766322  19.5166024  10.5528019  46.8809354  20.3962433
  10.5758959  47.2246805  19.6919649  23.4484974  49.7121374  32.4502927
  24.0402815  50.3518625  32.4821125  23.8843969  49.0144411  32.7394994
  23.6003405  49.7039724  32.4983760  12.0481391  43.1119872  19.5562005
  12.3697232  42.6322954  18.9021267  12.3108335  43.9219518  19.3652816
  12.1347417  43.1609770  19.4317497  15.2778364  54.1338746  33.0760821
  14.7703455  54.6874593  33.5201451  14.9805010  54.1947036  32.2579595
  15.1583249  54.2245057  33.0209278  17.4440546  42.4992066  31.9185484
  17.8695618  42.0464592  31.3069010  16.8297539  41.9452137  32.1950271
  17.4169192  42.3506042  31.8690509   6.9755396  49.3773737  22.8506109
   7.4847626  49.9738245  23.2317414   7.4489669  49.1099711  22.1682528
   7.1198772  49.4259553  22.8060631  17.8886144  58.0502004  21.0064764
  17.1715454  57.8762866  20.5412002  18.5392882  57.8154576  20.4740250
  17.8787995  57.9897796  20.8593982  15.8834769  38.9707166  25.3276061
  15.2403087  38.8204812  25.8961199  15.5434176  38.7249511  24.5625165
  15.7379846  38.9119288  25.2979076  20.4734116  46.9266592  24.7506069
  19.8025305  47.4696295  24.6219135  21.1673866  47.3961448  24.5087764
  20.4762983  47.0764864  24.6961597  14.5220849  59.0663304  29.9817828
  14.2986504  58.3082134  30.3501854  14.0330693  59.0961326  29.2598267
  14.4164298  58.9585529  29.9294569  20.6362243  43.3822476  27.6596443
  20.9889853  42.9552199  28.3342241  19.7777045  43.2973320  27.7897519
  20.5611688  43.3067217  27.7791453   9.3345928  46.0129996  25.7179289
   8.6157917  46.4294128  25.9852153   9.7058290  46.5784235  25.1670927
   9.2837860  46.1579277  25.6762096  18.6345509  46.6457845  31.6081285
  18.6143436  46.4641140  32.4616064  18.6824710  47.5169863  31.5840869
  18.6380150  46.7474383  31.7304580  16.5791839  53.2345037  37.5329761
  16.5387694  52.5894714  36.9474917  17.3915157  53.1781654  37.8455173
  16.6934992  53.1304004  37.4926711  13.1699306  59.2863763  27.4354912
  12.7559705  58.6237893  27.0458754  13.8546681  59.4341621  26.9150606
  13.2097678  59.2104421  27.3011409  16.5364600  58.4453848  28.1878529
  16.1380884  58.5556118  27.4199349  15.9215820  58.6535914  28.7705089
  16.3863490  58.4927416  28.1609828  15.1092502  45.0527996  21.0552669
  14.5157342  45.3744992  20.5037236  15.1467780  44.2069091  20.8473775
  15.0266892  44.9752324  20.9435440  22.0686303  38.5040888  28.5880755
  21.5617168  37.7970028  28.5201933  22.8653737  38.1734077  28.7181832
  22.1113542  38.3514039  28.5979750  17.9850319  45.0107500  24.4854419
  17.7564012  45.0340202  23.6432777  18.2448395  44.1864967  24.6049429
  17.9896507  44.8923580  24.3779617  12.2669547  46.8641973  34.0879519
  11.7548451  46.2563156  34.4464550  12.0949044  47.5798566  34.5553495
  12.1659184  46.8805273  34.2095743   7.1135262  45.3079549  36.7381881
   6.9437852  45.9680923  36.1930087   6.6701212  45.5186110  37.4594370
   7.0234596  45.4365531  36.7643510  11.0395082  43.5484046  25.7808615
  11.5152448  43.9101126  25.1458796  10.5383681  44.2040514  26.0608757
  11.0360441  43.6978235  25.7285355  24.2706443  53.0205815  21.5721620
  24.6540049  53.7697171  21.8019717  23.4750556  53.2671634  21.3133609
  24.2100225  53.1675508  21.5679193  16.1438618  44.7866218  36.5281775
  16.7010048  44.5580027  35.8960240  15.8199683  45.5471884  36.2516987
  16.1785028  44.8650055  36.3938272   4.0137327  48.2126414  31.9970371
   3.4664046  47.5427060  32.1151239   4.8029705  47.8456262  32.0613838
   4.0489510  48.0591401  32.0239071  13.8621735  47.8733871  37.4933782
  14.6133062  48.1885548  37.8073336  14.0544312  47.6713042  36.6667703
  14.0013149  47.8901253  37.4177177  13.0821735  45.6925246  19.1481998
  13.4620700  45.7104875  18.3633113  12.3414331  46.1379235  19.0272846
  13.0290572  45.7607021  19.0145567  20.7107025  44.0007437  24.7357577
  20.7101252  43.8456094  25.5941854  20.5063205  44.8470425  24.6798963
  20.6806803  44.1028058  24.8545517   2.7724296  47.4247222  29.1516394
   2.5946057  46.9723831  29.8771309   2.4843318  48.2273383  29.3354871
   2.7037249  47.4769780  29.2859897  18.4347877  48.6804939  28.3893784
  18.9301543  47.9627934  28.3497804  17.6247653  48.3775737  28.2748271
  18.3891771  48.5302586  28.3667510  13.8806489  52.5302753  20.5390788
  13.0717812  52.2069426  20.4924098  14.3881398  51.8235975  20.4719037
  13.8356156  52.3784069  20.5221083   4.5096766  49.9574946  26.2638153
   3.6442286  49.9460636  26.1520924   4.6095582  49.7705169  27.1109292
   4.3970933  49.9281007  26.3727097  20.4999696  51.4308627  31.0770913
  20.9254768  50.9083049  30.5241338  20.1356616  52.0289464  30.5559536
  20.5086299  51.4418854  30.9179923  10.1353776  59.7272844  29.8368258
  10.4500335  60.5409233  29.8446040  10.5447189  59.3423063  30.5050417
  10.2421874  59.7901547  29.9372350  17.0878296  55.1442891  27.4072070
  17.5589474  55.8583154  27.5762055  17.4238474  54.5441641  27.9431940
  17.2073411  55.1614355  27.5104446  19.1755280  56.7544204  39.5864142
  19.2852246  55.9652765  39.9420890  19.5046177  56.6650141  38.7838480
  19.2407686  56.6250057  39.5206533  14.0047791  39.9170362  34.3630165
  14.1375696  39.1201355  34.6911141  14.3892943  40.4436765  34.9428441
  14.0804119  39.8770278  34.4973668  17.7252242  54.9360825  34.1699763
  17.1773188  54.3118709  33.9019828  18.1865271  55.1255097  33.4543842
  17.7119451  54.8719875  34.0250194  17.0780146  36.8400688  30.9611258
  16.2726109  36.7298417  31.2779097  16.9486881  36.9413143  30.1041124
  16.9400279  36.8384358  30.8819299  20.5346106  43.0046180  31.5550955
  19.9509095  43.5055386  31.1428523  20.8550400  42.4975736  30.9215279
  20.4959282  43.0038015  31.4009462  13.0740905  41.9186774  21.8309630
  13.8956600  42.0885087  21.5891325  12.6110556  42.0734035  21.1075928
  13.1272068  41.9668507  21.6881274  11.6636237  39.9129537  32.6108059
  12.2080650  39.5720664  33.2012401  11.7173173  40.7714998  32.7529343
  11.7525357  39.9884796  32.7189932   7.4766796  53.6745953  29.4846867
   8.0811653  53.6341787  28.8560687   7.2694109  54.5217105  29.5150923
   7.5355693  53.7933955  29.3962983  17.2910568  55.9411898  30.7009104
  18.1108942  55.7974864  30.9625399  17.0104646  56.5658097  31.2425542
  17.3707312  56.0122250  30.8197044   2.7118078  52.6580570  29.3545790
   2.6142356  51.8476842  29.6635847   3.4946948  52.6372364  28.9692058
   2.8134215  52.5347660  29.3432653  33.7624219  63.5976750  23.6651980
  33.7318223  64.4521386  23.8370250  34.3605567  63.2972042  24.2238124
  33.8461376  63.6793246  23.7726783  26.9623903  62.6852401  28.4204911
  26.1061799  62.8460899  28.4714028  27.0091557  61.8144465  28.4409972
  26.8423015  62.5803202  28.4310977  21.3465043  72.2215118  24.1842142
  20.5947943  71.8430657  23.9558188  21.7951055  72.2533552  23.4360953
  21.3014710  72.1700726  24.0399645  30.2717620  68.9538926  38.0265367
  30.9784387  68.4590957  38.1552301  30.4605555  69.3948008  37.2968025
  30.4045526  68.9457277  37.9374412  26.7990003  72.6440488  19.6127690
  26.4641371  73.3217410  19.1771912  27.3116873  72.2545799  19.0244561
  26.8255584  72.6865066  19.4614481  26.3394294  74.5954757  25.5538801
  26.7233674  75.1641655  25.0143576  26.2753436  73.8704267  25.0744617
  26.3867722  74.5730220  25.4032664  29.8075724  64.7444445  31.0636563
  30.3531684  65.4229531  31.1230532  29.7492601  64.6031905  30.2038144
  29.8791639  64.8236446  30.9448623  22.9249799  72.2333511  26.4504915
  23.0260162  71.4233865  26.7602043  22.3291545  72.1390457  25.8204593
  22.8522338  72.0998539  26.4031153  31.5840793  66.1729052  21.9370290
  31.4680319  66.9236738  22.3662428  32.3796680  65.9153005  22.1866377
  31.6845383  66.2463899  22.0374382  22.7650539  77.1511100  27.8519771
  23.4087994  77.5924264  28.2415929  23.0906794  76.3464526  27.7650030
  22.9082368  77.0976295  27.8965248  16.1214844  68.2553797  26.0757249
  15.8865028  67.4221450  25.9689517  16.2600484  68.5358463  25.2618450
  16.1070506  68.1737301  25.9399604  18.4204931  60.4239528  28.9741556
  17.8009963  59.8332175  28.8051571  18.3188795  61.0150963  28.3405880
  18.3142607  60.4243610  28.8546546  23.4671119  70.1623075  23.2239633
  23.7886960  70.7028282  22.6200941  24.1143215  69.5919846  23.3561922
  23.6097174  70.1582250  23.1546668  25.5172827  62.1639070  23.3074019
  26.2152991  62.3427197  23.7995483  25.8325159  61.6409409  22.6844409
  25.6668164  62.1132842  23.2876030  18.1474064  63.9691810  31.2185125
  18.0232761  64.5554255  31.8534944  18.7992349  63.4752005  31.5197400
  18.2247713  63.9830614  31.3571055  25.7060762  68.5509515  23.2953811
  26.1454398  67.9426615  23.7408584  25.5565425  68.1716888  22.5239276
  25.7482228  68.4047986  23.2472978  23.1732405  67.1453526  30.4972636
  23.8181408  66.6525970  30.1783585  23.4134182  67.2878313  31.3238715
  23.3042990  67.0930969  30.5722170  25.7118496  69.9908432  30.1479529
  25.9941739  69.1959838  29.9266285  26.4404657  70.4689020  30.1684590
  25.8608060  69.9443029  30.1182544  23.6899690  57.5331466  27.3895294
  23.3603020  57.9842610  26.7198993  23.0144692  57.4547630  27.9368300
  23.5410127  57.5882601  27.3718517  29.3070099  66.9036696  20.2484580
  29.2221394  67.7597663  20.3934149  29.7954482  66.6281020  20.9166739
  29.3658996  66.9894017  20.3686662  30.8976098  53.5216989  25.6344905
  30.5829539  54.2120468  26.0665327  30.3803040  53.4661771  24.9330405
  30.7740568  53.6151878  25.5941854  30.2388532  63.5221490  21.7482315
  29.7100003  63.7381124  22.4079621  30.7613552  64.2157629  21.6683285
  30.2376985  63.6564627  21.8337914  35.6936585  69.0967795  27.1215360
  34.8634288  69.3078438  27.2848776  35.6445837  68.2704849  26.8457643
  35.5643320  69.0057401  27.1052725  22.1288140  67.4184707  20.5489783
  21.5445355  67.9234738  20.9555647  21.7258235  67.1927094  19.8086375
  21.9827443  67.4592955  20.4994808  17.6832168  73.1339468  27.3513455
  17.1999747  73.8589958  27.3273038  18.4955487  73.4315598  27.4623612
  17.7322916  73.2841822  27.3640734  23.7546322  71.9271649  29.9563269
  23.2373264  71.5679064  29.3524577  24.4520714  71.4033823  29.9669335
  23.7811903  71.7969337  29.8693528  27.4109914  72.3766463  35.9179442
  27.4993260  72.1892603  36.7657653  27.8399627  71.7303892  35.5184289
  27.4872017  72.2529470  35.9851194  24.9780374  71.6597623  34.8997104
  24.4151209  71.2470233  35.4236766  25.7401398  71.5850528  35.3190248
  25.0074823  71.5875023  35.0390105  26.5865354  63.6650359  19.0258704
  26.8261358  63.8728343  18.2134047  26.9081195  62.8607868  19.1347648
  26.6702512  63.5764460  18.9219257  21.8955644  55.5943755  22.8718242
  22.6501612  55.9622072  22.6335292  21.7183179  55.9683309  23.6397421
  21.9810123  55.7041943  22.9503130  20.5376366  73.6495644  27.5033735
  21.2396945  73.1347633  27.5606491  20.4573849  73.9769795  28.3080610
  20.6300126  73.6209870  27.6306527  35.1890543  61.7438195  30.9165781
  34.3518964  61.8140382  31.1513376  35.1578774  61.7462690  30.0440083
  35.0608825  61.7548422  30.8225329  21.5855272  63.8871231  36.6314150
  21.7575776  63.7777125  37.4799431  22.1224630  64.5325636  36.3945342
  21.6900276  63.9663232  36.7219246  20.2512709  58.0014074  19.5696355
  20.0688282  58.2185954  18.7437348  21.1138322  58.1153086  19.6254969
  20.3517298  58.0503972  19.4550842  19.8627141  69.8401996  27.0119343
  20.7016040  70.0724929  27.0593104  19.8938910  68.9706307  26.9426378
  19.9908859  69.7458942  27.0083987  20.4879844  70.2602871  31.3132648
  21.0278069  70.1174002  31.9836021  19.8049790  70.6599622  31.6816674
  20.4671998  70.2982542  31.4667070  25.9312428  55.0040484  22.6045379
  26.6598589  54.8256439  22.1583535  26.0207321  55.8458564  22.8152557
  26.0519090  55.1024363  22.5698896  29.9120729  65.9393872  26.5077673
  30.6678244  66.3725386  26.5466581  30.0183053  65.2898641  27.0812309
  30.0390899  65.9071356  26.5975698  32.9500900  69.7667149  27.2580075
  32.5136132  69.7703891  28.0139047  32.6163815  70.4472648  26.8259653
  32.8363520  69.8679605  27.3060908  27.5229974  71.8075482  38.5823226
  28.3070390  71.9206330  38.9478968  27.3226568  70.9816619  38.7781912
  27.6095999  71.7022201  38.6657612  15.8916989  66.4803162  31.4667070
  15.6255404  65.6642279  31.6258060  15.9055553  66.5256317  30.5962585
  15.8541711  66.3660067  31.3620552  32.8698383  56.8080977  29.5009503
  33.5124291  56.8779081  30.0871419  33.1221404  56.1410200  28.9989045
  33.0020515  56.7207325  29.5136783  19.7974736  61.2788246  18.0818828
  19.0832913  60.9926426  18.4941260  20.2818705  61.6184872  18.7225215
  19.7634099  61.2869896  18.2374463  20.6415595  60.0181540  34.1134077
  19.9487392  59.5478520  34.3594809  21.2575923  59.7919845  34.6875785
  20.6300125  59.9148672  34.2343230  27.6800367  73.7185584  32.2289681
  26.8815613  73.4785084  32.4863550  28.1286378  73.7699977  32.9756729
  27.6274978  73.6907975  32.3774606  36.0845246  66.4848069  26.1499713
  36.7461680  65.9238737  26.0495621  35.4436658  65.9900100  26.4752404
  36.0874114  66.3284478  26.1832053  26.9722054  69.7818200  18.4580636
  27.3873202  69.4503224  17.7665132  26.1413984  69.5487103  18.3300773
  26.9110063  69.6989456  18.3371483  16.3010403  67.2661941  28.7478814
  16.1185976  67.2408827  27.8951106  17.0360072  67.7360879  28.7867723
  16.3824467  67.3323304  28.6276732  32.3710077  67.5013451  25.8911702
  32.6065666  67.6458650  25.0638552  32.5199641  68.2655859  26.2843215
  32.4275880  67.6352506  25.8275305  19.3656154  63.9846944  35.2560923
  20.0896127  63.9699975  35.7425817  19.4672291  64.6942299  34.7582891
  19.4874363  64.0871647  35.2539709  34.2000534  66.3415117  23.7281305
  34.5308751  66.8742757  23.1221400  34.7733622  66.3954005  24.3843256
  34.3334213  66.4284686  23.7359087  26.7401104  67.4646029  40.1209870
  25.9474085  67.7789541  40.3062489  26.8550031  67.6797497  39.2830654
  26.6396514  67.5429865  40.0248204  29.4132423  64.1880020  24.4104885
  29.5079277  64.9269314  24.8644511  28.7891266  63.7597495  24.8439450
  29.3341453  64.2341340  24.5413033  27.6684897  67.3666232  35.0595166
  28.2423758  66.7293477  35.2143730  27.5899700  67.3670315  34.1904824
  27.7418131  67.2731344  34.9541577  16.2681313  64.1455442  28.8977881
  16.8454816  64.0091893  29.5370126  15.5695375  63.6891226  29.1523465
  16.2502334  64.0577708  29.0300170  29.6655444  66.0328760  17.6441837
  29.5835607  66.1030947  18.5096824  30.3035165  66.5958504  17.4525578
  29.7475281  66.1267731  17.7431787  23.0248615  65.7989498  27.1116364
  22.7667859  64.9661232  27.0847663  23.0797098  66.0247111  26.2708864
  22.9948393  65.7087269  26.9836501  28.1049665  57.9017948  27.2120456
  27.4005992  57.4127134  27.3704376  28.1534640  57.9140423  26.3408901
  28.0079717  57.8307596  27.1059796  21.9983327  63.3527260  27.5981259
  21.4232919  63.5119428  28.2345219  21.6219004  62.7162669  27.1349709
  21.8586140  63.2825073  27.6235817  25.6656616  61.8250609  32.4573637
  25.2771049  61.4004827  31.8025828  25.0011314  62.0732759  32.9650664
  25.5103544  61.7989330  32.4361505  35.3079885  61.5825614  25.2321467
  35.0516450  60.7705556  25.0419350  36.1509199  61.5903181  25.0051654
  35.3945911  61.4637612  25.1706284  11.7440146  62.9967335  25.6125699
  11.8300398  62.6199203  26.3939229  12.3715944  62.6227780  25.1345657
  11.8496697  62.8852817  25.6571176  29.4882978  55.5225238  29.9697621
  29.8693489  54.8403409  30.3565495  28.6846262  55.2334840  29.7873286
  29.4259439  55.3792287  30.0001677  26.7695554  66.0549214  20.6550444
  27.5836193  66.3464107  20.5433215  26.7054696  65.4009076  20.0808737
  26.8798293  66.0014409  20.5539281  32.9905044  68.7375210  35.0680020
  32.7543682  67.9063275  34.9492080  33.6348273  68.6860817  35.6534864
  33.0499715  68.6072898  35.1365913  22.6403463  69.5270731  25.7822756
  23.2777409  69.2882479  26.3274549  23.0658534  69.7307890  25.0475917
  22.7979629  69.5221742  25.7539913  17.3316105  71.7659068  29.6657060
  17.3720250  72.0373919  28.8376839  17.8910629  72.2900976  30.0814848
  17.4199451  71.8834823  29.6048948  23.2806278  64.7473021  20.1197645
  23.6651430  64.5280728  20.8714190  23.0317898  65.5735967  20.2498722
  23.3008350  64.8371167  20.2498722  23.4474818  58.0279436  39.8360230
  23.1328259  58.7978999  39.5729792  23.1264751  57.4649692  39.2512457
  23.3533737  58.0589705  39.7101580  34.0141465  68.5219659  31.1308314
  33.7087282  69.2547716  31.4921630  33.2947681  68.1157588  30.8501100
  33.8628807  68.5701392  31.1421451  25.0224934  70.0043154  27.4616542
  25.0963943  69.8418326  28.3158392  25.8394441  70.1933344  27.2177024
  25.1541293  70.0079896  27.5514568  39.7143257  65.1612660  30.4576658
  39.6467757  65.1808619  29.5879245  39.6998920  66.0042987  30.6832329
  39.7022014  65.2886394  30.3629135  18.7830691  70.3501017  24.4910986
  17.9568809  70.5962754  24.3645265  18.8442682  70.2713098  25.3573044
  18.6704858  70.3745966  24.5999930  21.0006715  56.4169958  25.4506426
  20.1329140  56.4892557  25.5164035  21.2881919  57.2192037  25.6394401
  20.9146463  56.5464105  25.4881193  30.1239604  56.5647817  33.7817748
  30.8693196  56.3757628  33.3681173  29.7076908  57.0906055  33.2231604
  30.1724578  56.6149963  33.6382321  23.5629520  72.9677897  22.1930016
  23.8527819  72.5766878  21.4689242  24.2933001  73.1494602  22.6335291
  23.7136404  72.9371711  22.1512823  37.5001875  63.9357046  28.7323253
  38.0509796  63.3025115  28.9720345  37.4845990  64.4672439  29.4238757
  37.5787071  63.9205994  28.8702111  24.1524265  67.7695643  33.2783146
  23.6535959  68.4811411  33.3568035  24.9624490  68.0896310  33.2401309
  24.1980372  67.9222492  33.2839715  21.5035436  74.9445280  25.2590165
  21.2835731  74.6542634  26.0516832  21.2829958  74.2860235  24.7308078
  21.4383030  74.8044988  25.2979074  20.4152383  67.0318596  27.5245867
  20.1265632  66.4056067  28.0591594  21.2835731  66.9738883  27.5910548
  20.5012635  66.9306140  27.6136822  31.2030281  62.1753379  27.8427849
  30.8595047  61.4543715  28.1935099  31.3023323  61.9667231  27.0006207
  31.1672324  62.0377583  27.7699529  23.6703391  76.3174669  24.0420858
  24.3227450  75.7851112  24.2711884  22.9729000  75.9643322  24.4288732
  23.6634109  76.1864192  24.1333026  20.6184656  68.6713847  23.4488232
  21.3730624  69.0526886  23.6623695  20.0255269  69.1224991  23.9034929
  20.6421370  68.7942674  23.5471111  31.6643310  68.6379083  23.3851837
  32.2301342  69.2972293  23.3010380  31.0171213  68.9828782  23.8568239
  31.6522066  68.7861025  23.4424594  23.0791323  60.6276687  38.5745444
  22.2691099  60.9334467  38.4635287  23.5566010  61.3482270  38.6898028
  23.0294802  60.7791289  38.5752515  21.9382883  69.8422408  28.8228348
  21.4163636  69.9822700  29.5080212  22.3256903  69.0833073  29.0130465
  21.9186584  69.7507932  28.9529424  18.9274067  59.8928217  22.8923302
  18.6398863  59.5229488  22.1555249  19.6144535  60.3623072  22.6307007
  18.9862964  59.9075187  22.7438378  28.1349888  71.5817868  22.8088916
  27.8936564  70.8485728  22.4015981  28.3151221  72.1304725  22.1555250
  28.1257512  71.5540259  22.6519139  23.3649209  66.8726427  24.2209839
  23.1691991  67.4801162  23.6270142  23.5883554  66.1794371  23.7401512
  23.3683850  66.8603953  24.0625919  21.7627739  63.7581165  24.3390707
  22.4850390  63.9222323  23.8794513  21.2835731  64.4790830  24.2330047
  21.7991469  63.8879395  24.2556321  29.7221246  60.0944964  29.7187392
  28.8832347  60.1206243  29.4825655  29.7925613  60.7415700  30.2992738
  29.6089640  60.1941090  29.7696509  19.4135355  66.1639238  33.4444847
  19.9256452  66.4423491  32.7953607  19.1271698  66.9028532  33.8107660
  19.4470218  66.3141591  33.4034725  28.1690524  56.9930341  24.4515008
  28.8716877  56.7938089  23.9734966  27.9034713  56.2206284  24.7583851
  28.2337157  56.8493307  24.4260449  33.5978770  65.3012951  27.0048634
  33.5112745  65.4568377  27.8583412  33.1429250  65.9451026  26.6308039
  33.5182027  65.4188706  27.0755740  16.5002262  60.6709430  23.7408583
  16.6018398  61.4735591  24.0689559  17.2958148  60.4696766  23.4431664
  16.6330167  60.7595328  23.7443939  22.9319081  58.2565626  33.5045888
  22.7402278  58.2720761  34.3545312  23.7817677  58.4529301  33.4812543
  23.0294803  58.2879978  33.6269183  17.3165994  60.7856608  31.4829705
  17.1751485  59.9340549  31.6074213  17.6006557  60.8285268  30.6591911
  17.3373840  60.6656358  31.3797329  27.4704586  62.6223698  25.6274193
  27.2239300  62.5419449  26.4610982  27.7989709  61.8377166  25.4336721
  27.4825830  62.4949963  25.7221716  31.3652635  69.3307057  29.4160974
  31.2266994  70.0288103  29.9209717  30.5852633  69.1755714  29.0597156
  31.2295862  69.4107224  29.4387248  29.7030720  65.6303433  35.6683356
  29.6978759  64.7583249  35.6725782  30.4091714  65.8291602  35.1952812
  29.8075724  65.5307307  35.5990391  23.4301613  65.3580417  35.0397176
  23.5744989  65.9381625  34.4040286  23.7777262  65.7356713  35.7447031
  23.5029075  65.5001121  35.0496171  25.6021531  64.5570585  32.8222308
  24.8544845  64.7501599  32.4170586  25.7563056  63.7315805  32.5846429
  25.5143958  64.4635696  32.7267714  22.5029368  73.5483188  31.9058203
  22.6518932  72.9886104  31.2531607  23.2829370  73.6275190  32.2890722
  22.6403462  73.4768754  31.8655152  32.8606008  68.6885311  20.1777474
  32.4812816  67.9022449  20.1706763  32.1972253  69.2372168  20.0349118
  32.7064482  68.6530135  20.1558270  25.0282669  73.7197831  33.1842694
  24.9526340  73.0506642  33.7393482  24.9572528  74.4215619  33.6983360
  25.0063276  73.7242739  33.3419542  25.8423308  58.4521136  33.7117712
  26.2995922  59.1845110  33.8390504  25.9179636  58.0287601  34.4704967
  25.9214278  58.4978374  33.8418788  18.0856299  58.6986955  34.8007155
  17.5498488  58.0867314  35.1167922  18.1474064  59.2735091  35.4540822
  18.0151932  58.6933883  34.9442582  30.3150634  51.6311011  27.5811554
  30.4334202  52.0887474  26.8478857  30.1412809  50.8256272  27.2947772
  30.3069805  51.5804783  27.4312488  25.6852916  72.2398830  24.0166300
  26.4502807  71.9708474  23.6948964  25.5831006  71.7548841  24.7336363
  25.7834411  72.1288395  24.0746127  23.7205686  60.4423240  30.5559536
  22.9301760  60.2614700  30.8776871  24.1166308  59.6650192  30.5389830
  23.6622562  60.3010701  30.6012084  28.2071576  69.2711014  15.9966249
  28.9744562  69.3311139  15.5872101  27.7602885  68.6991455  15.5122568
  28.2545004  69.1947590  15.8643959  29.1049372  68.0765670  28.2818981
  28.4294374  67.8450902  28.7832368  29.1141748  67.4686853  27.6561086
  29.0067876  67.9524595  28.2635134  26.2343516  62.9183499  35.0383034
  26.1702657  63.7793455  34.9103171  26.3740704  62.6015492  34.2378586
  26.2458986  62.9983665  34.9011247  31.1066107  70.9330802  20.5129159
  31.1885944  71.7397788  20.1890610  31.5915849  70.9526761  21.2369933
  31.1903264  71.0551465  20.5716058  24.9162610  65.6115638  29.1799237
  24.4924859  65.8120137  28.4438256  24.7407465  64.7644486  29.2923537
  24.8273490  65.5164420  29.0872927  24.4174303  77.1266151  31.6420695
  24.9070234  76.4276940  31.4596359  23.8458536  76.8290021  32.2296752
  24.4058833  76.9792375  31.7021735  20.2045055  66.1067690  24.6127210
  20.3609674  66.0414492  25.4683202  20.5445648  66.8816242  24.4005889
  20.2778290  66.2116888  24.7081804  26.7424199  65.4825573  23.4820573
  27.2839745  64.9795954  23.9459194  27.0570758  65.4290768  22.6710058
  26.8688596  65.4004994  23.4304385  30.6141307  69.6928220  40.5947485
  31.4276172  69.4213369  40.7552618  30.4536273  69.3935760  39.7907681
  30.7111255  69.6083146  40.4992891  24.9110649  70.8742925  20.7660601
  24.9803469  70.0157463  20.9053602  25.6899104  71.0914806  20.4379626
  25.0363499  70.7795789  20.7377758  27.8913469  60.3761878  33.5342874
  28.1055438  59.7372792  32.9806228  27.2747368  60.8207701  33.1050735
  27.8318798  60.3472021  33.3893305  29.3018137  73.2980626  24.9797094
  28.9097928  72.9947341  24.2619961  29.4571209  74.1349716  24.7902048
  29.2671727  73.3764463  24.8453592  16.7779316  63.2902640  24.9287977
  17.1578281  63.7087185  24.2648244  16.2034681  63.8716096  25.2356820
  16.7490641  63.4380499  24.8764718  30.0552557  61.9850943  34.4726181
  29.2429238  61.6776833  34.5539353  30.5142491  61.5049943  35.0368893
  30.0032942  61.8687435  34.5680775  29.4657811  69.8630615  24.9203125
  29.1072466  70.0345258  25.6967157  28.9796522  70.3243820  24.3631123
  29.3416508  69.9569586  24.9528394  27.2828197  53.4861813  28.5230216
  26.4121755  53.4600534  28.4763526  27.5368539  53.3139005  27.7056062
  27.1921758  53.4571957  28.3950353  24.2546177  65.5429780  17.4603359
  24.5438702  66.3194663  17.7346934  24.3417976  65.0318512  18.1617859
  24.3100433  65.5821699  17.6045857  27.1506064  63.3911014  39.2554883
  27.6205695  64.0153131  39.6422757  27.1967944  62.7227990  39.8148098
  27.2273940  63.3845695  39.3954954  24.3077338  55.4968042  29.9803687
  23.7915826  54.8048233  30.1055266  23.7471267  56.1638819  29.9266285
  24.1483851  55.4931299  29.9909753  26.3769571  56.0361002  31.8096539
  25.9901325  56.0610033  32.5910069  25.8902509  55.4702680  31.3571056
  26.2482080  55.9556753  31.8584443  30.6262551  70.7534511  35.8670326
  31.2642271  70.2594706  35.5332782  29.9836642  70.6811911  35.2822553
  30.6256777  70.6693519  35.7312681  32.3519551  62.6023657  30.4336241
  31.9247159  62.5150005  29.6784341  31.7145604  62.7101432  31.0191086
  32.1949158  62.6056317  30.4081683  26.0426713  52.9227987  34.1006799
  26.6719831  53.4588287  33.8227870  26.2112576  52.8305346  34.9520365
  26.1604508  52.9889350  34.1855327  25.8440628  57.7099182  36.3733211
  26.6714057  57.4384331  36.4291825  25.8648474  58.5060024  36.7297029
  25.9693478  57.7878936  36.4348394  30.6816807  71.4454319  32.5075683
  31.4709186  71.0943384  32.6277764  30.8560405  72.2590707  32.2452316
  30.8237089  71.5140176  32.4863551  20.4210118  64.8563045  29.5603471
  19.5798124  64.7566919  29.7682365  20.6300126  65.6258525  29.9117792
  20.3274810  64.9555088  29.6430786  17.8985685  62.4782582  27.3888222
  17.5042383  62.5525594  26.6138332  17.3425802  62.8640528  27.9396584
  17.7588497  62.5464356  27.3555882  29.5350632  55.4563876  27.0692101
  29.7400225  55.3886184  27.9149098  29.2077056  56.2622697  27.0013278
  29.5165879  55.5649816  27.1851756  24.2326783  62.7844444  28.8101069
  23.9289920  62.2300432  29.4111477  23.5306203  62.9636654  28.3229103
  24.0842992  62.7289226  28.8270775  23.2892880  60.0944964  23.3745771
  23.5652614  59.3763876  22.9623338  23.8891549  60.6929884  23.1666877
  23.4186144  60.0765334  23.2826532  22.2945134  69.9994165  33.5173167
  22.1865489  70.0096227  34.3835225  22.5040915  70.8248945  33.3278121
  22.3095245  70.1235239  33.6177258  32.7884319  56.0095640  26.5494866
  32.1758633  56.4966042  26.9348598  32.8848494  55.3339131  27.0932518
  32.7122217  55.9813949  26.6873725  26.7903400  57.7658481  21.6492366
  27.2447147  57.9369042  22.3740210  27.2643446  57.1526592  21.2490142
  26.9271720  57.7009366  21.6966127  20.3118926  67.2506807  30.9795104
  19.7206859  67.8916305  30.9498119  21.0739949  67.6744424  30.9526404
  20.3367186  67.4082645  30.9710252  20.7079548  58.4108805  31.6463122
  21.1681030  58.4847734  32.3838246  20.7535655  59.2090059  31.2962943
  20.7830104  58.5402952  31.7035878  22.3562898  59.0775500  36.2135149
  21.9648463  58.4308847  36.6490927  22.5248761  59.6686935  36.8329404
  22.3233809  59.0689768  36.3697855  36.4309347  67.0812577  31.9772383
  36.4892471  67.5299226  32.7232359  35.7975815  67.4911390  31.5402463
  36.3460642  67.2086311  32.0224931  30.0708442  72.7016119  28.4127129
  29.8728131  73.1906933  27.7183340  29.4496153  72.9057360  28.9911262
  29.9496006  72.8032657  28.3950352  24.1316420  64.4701015  22.7537373
  24.8758465  64.8575292  22.9920323  24.2777116  63.6258441  22.9177861
  24.2627005  64.4031488  22.8131343  26.0495996  56.2651274  27.7869234
  25.2032041  56.4374082  27.6610584  26.0467128  55.4600618  28.1235063
  25.9243146  56.1712303  27.8180361  27.1194296  60.0426489  28.6531292
  26.6454250  59.5168251  29.1636603  27.4912432  59.4955962  28.0846154
  27.1044185  59.8842485  28.6446440  17.4967326  62.0397995  34.0214838
  18.3592939  61.9393705  33.9352168  17.1659109  61.4592705  33.4600410
  17.5752523  61.9389622  33.9260244  33.3831027  65.1028864  30.0638073
  33.1429250  64.2635280  30.0680499  33.8623034  65.1829031  30.7878846
  33.4183210  64.9910264  30.1712875  29.0477796  60.9363043  21.7157046
  28.5200814  61.0191787  21.0262755  29.5073504  61.6780915  21.7121691
  29.0379646  61.0583706  21.6131741  35.3836214  61.8830322  28.0167332
  35.1445984  61.8426156  27.1788117  35.5470115  62.7301474  28.1433053
  35.3726517  62.0022407  27.9120814  31.9882244  66.2680271  33.9472377
  32.7116443  65.8152797  33.7683397  31.7232206  66.5484937  33.1644705
  32.0563517  66.2431239  33.8051093  20.8569112  60.8640445  30.6825256
  20.2322182  60.8758836  30.0751209  20.5214707  61.3400620  31.3316497
  20.7154604  60.9358961  30.6881825  21.0410861  59.2065563  16.7397941
  20.6923665  59.8585288  17.2029491  20.5607307  59.1922676  16.0121813
  20.9181105  59.3008617  16.7009033  17.5694788  68.9240905  32.1229021
  17.0394712  68.2333344  32.1723995  17.8419881  68.9151090  31.2941729
  17.5319510  68.8208036  32.0076437  28.6014878  69.5066607  20.8466703
  29.3249077  69.9724720  20.7031277  28.1615469  69.5740217  20.0964300
  28.6430570  69.5850444  20.7151485  27.7701033  66.3664149  32.0967392
  27.1558026  65.8222199  32.3916028  28.2868318  65.8528386  31.6173208
  27.7556696  66.2100558  32.0691621  27.0097331  67.4368419  29.8311691
  26.5824939  66.8118138  29.3977126  27.0022275  67.1543341  30.6570698
  26.9456472  67.3021200  29.8891518  20.1259858  62.4733592  32.9000125
  20.2853344  61.7176916  33.3051847  19.9452751  63.0224532  33.5540863
  20.1225217  62.4427406  33.0562831  28.0680161  54.6394828  33.4550914
  27.5720722  54.8358502  32.7642481  28.8249223  55.0387496  33.2839716
  28.1066985  54.7272562  33.3271051  25.3383040  58.3137174  30.0454225
  25.3625527  57.7797286  29.3567005  25.5894514  57.8054483  30.7079815
  25.3792959  58.1598078  30.0418870  12.8490630  65.5968669  29.4797369
  12.7434079  65.5515513  28.6149453  12.0990850  65.9422449  29.7611654
  12.7226233  65.6409577  29.3934699  21.6184362  57.0407992  29.4259969
  21.6582734  57.5417199  30.1394677  20.7934027  57.1318386  29.1565892
  21.5023888  57.1289808  29.4910507  23.8013975  66.6068732  37.5280264
  22.9509606  66.7440446  37.6637909  23.9642103  65.8732510  37.9727965
  23.6997839  66.5182833  37.6135863  23.0398726  63.5568502  31.7233868
  22.2090655  63.7242320  31.5169116  22.9850243  63.1804453  32.5082753
  22.9088141  63.5258233  31.8082396  20.8482509  57.0477395  37.3590279
  21.4735212  56.5039528  37.6319711  20.3932989  56.5672312  36.7898069
  20.8730770  56.8966876  37.3151873  21.4134770  61.8324093  22.2523986
  21.5537731  62.3296558  22.9552627  21.9117302  61.1310388  22.3938200
  21.5075851  61.8026072  22.3775565  21.4434992  62.6991204  19.5816563
  22.0780072  63.2951629  19.5166024  21.5260603  62.3994662  20.3962433
  21.5491543  62.7432113  19.6919649  34.4217558  65.2306682  32.4502927
  35.0135398  65.8703932  32.4821125  34.8576552  64.5329719  32.7394994
  34.5735989  65.2225032  32.4983760  23.0213975  58.6305180  19.5562005
  23.3429816  58.1508262  18.9021267  23.2840919  59.4404826  19.3652816
  23.1080000  58.6795078  19.4317497  26.2510948  69.6524054  33.0760821
  25.7436039  70.2059901  33.5201451  25.9537594  69.7132344  32.2579595
  26.1315833  69.7430365  33.0209278  28.4173130  58.0177374  31.9185484
  28.8428201  57.5649900  31.3069010  27.8030123  57.4637444  32.1950271
  28.3901775  57.8691350  31.8690509  17.9487980  64.8959045  22.8506109
  18.4580209  65.4923553  23.2317414  18.4222252  64.6285019  22.1682528
  18.0931356  64.9444861  22.8060631  28.8618728  73.5687312  21.0064764
  28.1448038  73.3948174  20.5412002  29.5125466  73.3339884  20.4740250
  28.8520578  73.5083104  20.8593982  31.4466699  62.4451900  24.7506069
  30.7757889  62.9881603  24.6219135  32.1406449  62.9146756  24.5087764
  31.4495567  62.5950172  24.6961597  25.4953433  74.5848612  29.9817828
  25.2719087  73.8267442  30.3501854  25.0063276  74.6146634  29.2598267
  25.3896882  74.4770837  29.9294569  31.6094827  58.9007784  27.6596443
  31.9622437  58.4737507  28.3342241  30.7509628  58.8158628  27.7897519
  31.5344271  58.8252525  27.7791453  20.3078512  61.5315304  25.7179289
  19.5890501  61.9479436  25.9852153  20.6790874  62.0969543  25.1670927
  20.2570443  61.6764585  25.6762096  29.6078092  62.1643153  31.6081285
  29.5876020  61.9826448  32.4616064  29.6557293  63.0355171  31.5840869
  29.6112733  62.2659691  31.7304580  27.5524422  68.7530345  37.5329761
  27.5120277  68.1080022  36.9474917  28.3647741  68.6966962  37.8455173
  27.6667576  68.6489311  37.4926711  24.1431890  74.8049071  27.4354912
  23.7292288  74.1423201  27.0458754  24.8279264  74.9526929  26.9150606
  24.1830262  74.7289729  27.3011409  27.5097184  73.9639156  28.1878529
  27.1113467  74.0741426  27.4199349  26.8948404  74.1721222  28.7705089
  27.3596073  74.0112724  28.1609828  26.0825086  60.5713304  21.0552669
  25.4889925  60.8930300  20.5037236  26.1200364  59.7254399  20.8473775
  25.9999475  60.4937632  20.9435440  33.0418887  54.0226196  28.5880755
  32.5349751  53.3155335  28.5201933  33.8386320  53.6919385  28.7181832
  33.0846126  53.8699347  28.5979750  28.9582903  60.5292808  24.4854419
  28.7296596  60.5525510  23.6432777  29.2180979  59.7050275  24.6049429
  28.9629091  60.4108888  24.3779617  23.2402131  62.3827281  34.0879519
  22.7281034  61.7748464  34.4464550  23.0681627  63.0983874  34.5553495
  23.1391768  62.3990580  34.2095743  18.0867846  60.8264856  36.7381881
  17.9170436  61.4866231  36.1930087  17.6433796  61.0371418  37.4594370
  17.9967179  60.9550839  36.7643510  22.0127665  59.0669354  25.7808615
  22.4885031  59.4286434  25.1458796  21.5116265  59.7225822  26.0608757
  22.0093024  59.2163543  25.7285355  35.2439027  68.5391122  21.5721620
  35.6272632  69.2882479  21.8019717  34.4483140  68.7856942  21.3133609
  35.1832809  68.6860816  21.5679193  27.1171201  60.3051526  36.5281775
  27.6742632  60.0765335  35.8960240  26.7932266  61.0657191  36.2516987
  27.1517612  60.3835363  36.3938272  14.9869910  63.7311722  31.9970371
  14.4396630  63.0612368  32.1151239  15.7762288  63.3641570  32.0613838
  15.0222094  63.5776708  32.0239071  24.8354319  63.3919179  37.4933782
  25.5865646  63.7070856  37.8073336  25.0276895  63.1898350  36.6667703
  24.9745733  63.4086561  37.4177177  24.0554318  61.2110554  19.1481998
  24.4353283  61.2290183  18.3633113  23.3146914  61.6564543  19.0272846
  24.0023156  61.2792329  19.0145567  31.6839609  59.5192745  24.7357577
  31.6833835  59.3641402  25.5941854  31.4795789  60.3655732  24.6798963
  31.6539387  59.6213366  24.8545517  13.7456880  62.9432530  29.1516394
  13.5678641  62.4909139  29.8771309  13.4575902  63.7458691  29.3354871
  13.6769833  62.9955088  29.2859897  29.4080461  64.1990247  28.3893784
  29.9034126  63.4813242  28.3497804  28.5980237  63.8961045  28.2748271
  29.3624354  64.0487893  28.3667510  24.8539072  68.0488060  20.5390788
  24.0450395  67.7254734  20.4924098  25.3613981  67.3421283  20.4719037
  24.8088739  67.8969377  20.5221083  15.4829350  65.4760254  26.2638153
  14.6174869  65.4645944  26.1520924  15.5828165  65.2890476  27.1109292
  15.3703517  65.4466315  26.3727097  31.4732280  66.9493935  31.0770913
  31.8987351  66.4268357  30.5241338  31.1089200  67.5474772  30.5559536
  31.4818882  66.9604162  30.9179923  21.1086360  75.2458152  29.8368258
  21.4232918  76.0594541  29.8446040  21.5179773  74.8608371  30.5050417
  21.2154457  75.3086855  29.9372350  28.0610879  70.6628199  27.4072070
  28.5322057  71.3768462  27.5762055  28.3971058  70.0626949  27.9431940
  28.1805994  70.6799663  27.5104446  30.1487864  72.2729512  39.5864142
  30.2584829  71.4838073  39.9420890  30.4778760  72.1835449  38.7838480
  30.2140270  72.1435365  39.5206533  24.9780374  55.4355670  34.3630165
  25.1108280  54.6386663  34.6911141  25.3625527  55.9622073  34.9428441
  25.0536703  55.3955586  34.4973668  28.6984825  70.4546133  34.1699763
  28.1505771  69.8304017  33.9019828  29.1597854  70.6440405  33.4543842
  28.6852035  70.3905183  34.0250194  28.0512729  52.3585996  30.9611258
  27.2458693  52.2483725  31.2779097  27.9219465  52.4598451  30.1041124
  27.9132862  52.3569666  30.8819299  31.5078690  58.5231488  31.5550955
  30.9241679  59.0240694  31.1428523  31.8282984  58.0161044  30.9215279
  31.4691865  58.5223323  31.4009462  24.0473489  57.4372082  21.8309630
  24.8689183  57.6070395  21.5891325  23.5843140  57.5919343  21.1075928
  24.1004651  57.4853815  21.6881274  22.6368821  55.4314845  32.6108059
  23.1813234  55.0905971  33.2012401  22.6905757  56.2900306  32.7529343
  22.7257940  55.5070104  32.7189932  18.4499380  69.1931261  29.4846867
  19.0544237  69.1527095  28.8560687  18.2426692  70.0402413  29.5150923
  18.5088277  69.3119263  29.3962983  28.2643152  71.4597206  30.7009104
  29.0841526  71.3160172  30.9625399  27.9837229  72.0843405  31.2425542
  28.3439895  71.5307558  30.8197044  13.6850662  68.1765878  29.3545790
  13.5874940  67.3662150  29.6635847  14.4679532  68.1557672  28.9692058
  13.7866798  68.0532968  29.3432653  44.7356802  79.1162057  23.6651980
  44.7050807  79.9706694  23.8370250  45.3338151  78.8157350  24.2238124
  44.8193960  79.1978554  23.7726783  37.9356487  78.2037709  28.4204911
  37.0794383  78.3646207  28.4714028  37.9824141  77.3329772  28.4409972
  37.8155598  78.0988510  28.4310977  41.2450204  84.4724234  38.0265367
  41.9516971  83.9776265  38.1552301  41.4338139  84.9133316  37.2968025
  41.3778109  84.4642584  37.9374412  40.7808308  80.2629752  31.0636563
  41.3264268  80.9414839  31.1230532  40.7225184  80.1217213  30.2038144
  40.8524222  80.3421754  30.9448623  42.5573377  81.6914360  21.9370290
  42.4412903  82.4422046  22.3662428  43.3529263  81.4338313  22.1866377
  42.6577966  81.7649206  22.0374382  29.3937515  75.9424836  28.9741556
  28.7742546  75.3517483  28.8051571  29.2921378  76.5336271  28.3405880
  29.2875190  75.9428918  28.8546546  36.4905410  77.6824378  23.3074019
  37.1885575  77.8612505  23.7995483  36.8057743  77.1594717  22.6844409
  36.6400747  77.6318150  23.2876030  29.1206648  79.4877117  31.2185125
  28.9965345  80.0739563  31.8534944  29.7724932  78.9937313  31.5197400
  29.1980297  79.5015922  31.3571055  34.1464989  82.6638834  30.4972636
  34.7913991  82.1711278  30.1783585  34.3866766  82.8063621  31.3238715
  34.2775574  82.6116277  30.5722170  34.6632274  73.0516774  27.3895294
  34.3335604  73.5027918  26.7198993  33.9877276  72.9732938  27.9368300
  34.5142710  73.1067909  27.3718517  40.2802682  82.4222004  20.2484580
  40.1953977  83.2782970  20.3934149  40.7687065  82.1466328  20.9166739
  40.3391579  82.5079325  20.3686662  41.8708682  69.0402297  25.6344905
  41.5562123  69.7305776  26.0665327  41.3535623  68.9847079  24.9330405
  41.7473152  69.1337186  25.5941854  41.2121115  79.0406798  21.7482315
  40.6832587  79.2566432  22.4079621  41.7346135  79.7342936  21.6683285
  41.2109568  79.1749935  21.8337914  46.6669168  84.6153102  27.1215360
  45.8366871  84.8263746  27.2848776  46.6178421  83.7890157  26.8457643
  46.5375904  84.5242709  27.1052725  37.5597938  79.1835667  19.0258704
  37.7993941  79.3913651  18.2134047  37.8813779  78.3793176  19.1347648
  37.6435096  79.0949768  18.9219257  32.8688228  71.1129063  22.8718242
  33.6234196  71.4807380  22.6335292  32.6915763  71.4868617  23.6397421
  32.9542706  71.2227250  22.9503130  46.1623127  77.2623503  30.9165781
  45.3251548  77.3325690  31.1513376  46.1311358  77.2647998  30.0440083
  46.0341409  77.2733730  30.8225329  32.5587856  79.4056539  36.6314150
  32.7308359  79.2962433  37.4799431  33.0957213  80.0510944  36.3945342
  32.6632860  79.4848540  36.7219246  31.2245293  73.5199382  19.5696355
  31.0420866  73.7371262  18.7437348  32.0870906  73.6338394  19.6254969
  31.3249882  73.5689279  19.4550842  36.9045012  70.5225792  22.6045379
  37.6331172  70.3441747  22.1583535  36.9939905  71.3643872  22.8152557
  37.0251674  70.6209671  22.5698896  40.8853312  81.4579180  26.5077673
  41.6410827  81.8910694  26.5466581  40.9915637  80.8083949  27.0812309
  41.0123483  81.4256663  26.5975698  43.9233484  85.2852457  27.2580075
  43.4868715  85.2889199  28.0139047  43.5896399  85.9657956  26.8259653
  43.8096104  85.3864913  27.3060908  43.8430966  72.3266285  29.5009503
  44.4856875  72.3964389  30.0871419  44.0953987  71.6595508  28.9989045
  43.9753099  72.2392633  29.5136783  30.7707320  76.7973554  18.0818828
  30.0565497  76.5111734  18.4941260  31.2551288  77.1370180  18.7225215
  30.7366683  76.8055204  18.2374463  31.6148179  75.5366848  34.1134077
  30.9219976  75.0663828  34.3594809  32.2308506  75.3105153  34.6875785
  31.6032709  75.4333980  34.2343230  47.0577830  82.0033377  26.1499713
  47.7194264  81.4424045  26.0495621  46.4169242  81.5085407  26.4752404
  47.0606697  81.8469786  26.1832053  43.3442660  83.0198759  25.8911702
  43.5798250  83.1643958  25.0638552  43.4932224  83.7841167  26.2843215
  43.4008464  83.1537814  25.8275305  30.3388738  79.5032252  35.2560923
  31.0628710  79.4885283  35.7425817  30.4404874  80.2127607  34.7582891
  30.4606947  79.6056955  35.2539709  45.1733117  81.8600425  23.7281305
  45.5041334  82.3928065  23.1221400  45.7466205  81.9139313  24.3843256
  45.3066796  81.9469994  23.7359087  37.7133687  82.9831337  40.1209870
  36.9206668  83.2974849  40.3062489  37.8282614  83.1982805  39.2830654
  37.6129098  83.0615173  40.0248204  40.3865006  79.7065328  24.4104885
  40.4811861  80.4454622  24.8644511  39.7623850  79.2782803  24.8439450
  40.3074036  79.7526648  24.5413033  38.6417480  82.8851540  35.0595166
  39.2156342  82.2478785  35.2143730  38.5632284  82.8855623  34.1904824
  38.7150715  82.7916652  34.9541577  27.2413897  79.6640750  28.8977881
  27.8187399  79.5277201  29.5370126  26.5427958  79.2076534  29.1523465
  27.2234918  79.5763016  29.0300170  40.6388028  81.5514068  17.6441837
  40.5568190  81.6216255  18.5096824  41.2767748  82.1143812  17.4525578
  40.7207865  81.6453039  17.7431787  33.9981199  81.3174806  27.1116364
  33.7400443  80.4846540  27.0847663  34.0529682  81.5432419  26.2708864
  33.9680977  81.2272577  26.9836501  39.0782249  73.4203256  27.2120456
  38.3738576  72.9312442  27.3704376  39.1267223  73.4325731  26.3408901
  38.9812301  73.3492904  27.1059796  32.9715911  78.8712568  27.5981259
  32.3965502  79.0304736  28.2345219  32.5951587  78.2347977  27.1349709
  32.8318723  78.8010381  27.6235817  36.6389200  77.3435917  32.4573637
  36.2503632  76.9190135  31.8025828  35.9743898  77.5918067  32.9650664
  36.4836127  77.3174638  32.4361505  46.2812469  77.1010922  25.2321467
  46.0249034  76.2890863  25.0419350  47.1241783  77.1088489  25.0051654
  46.3678494  76.9822919  25.1706284  22.7172730  78.5152643  25.6125699
  22.8032982  78.1384511  26.3939229  23.3448527  78.1413088  25.1345657
  22.8229281  78.4038125  25.6571176  40.4615561  71.0410546  29.9697621
  40.8426073  70.3588717  30.3565495  39.6578845  70.7520148  29.7873286
  40.3992023  70.8977595  30.0001677  37.7428138  81.5734522  20.6550444
  38.5568777  81.8649415  20.5433215  37.6787279  80.9194384  20.0808737
  37.8530877  81.5199717  20.5539281  43.9637628  84.2560518  35.0680020
  43.7276265  83.4248583  34.9492080  44.6080857  84.2046125  35.6534864
  44.0232299  84.1258206  35.1365913  34.2538861  80.2658329  20.1197645
  34.6384014  80.0466036  20.8714190  34.0050481  81.0921275  20.2498722
  34.2740934  80.3556475  20.2498722  34.4207402  73.5464744  39.8360230
  34.1060843  74.3164307  39.5729792  34.0997334  72.9835000  39.2512457
  34.3266321  73.5775013  39.7101580  44.9874049  84.0404967  31.1308314
  44.6819866  84.7733024  31.4921630  44.2680264  83.6342896  30.8501100
  44.8361391  84.0886700  31.1421451  50.6875841  80.6797967  30.4576658
  50.6200341  80.6993927  29.5879245  50.6731503  81.5228295  30.6832329
  50.6754597  80.8071702  30.3629135  31.9739298  71.9355266  25.4506426
  31.1061724  72.0077865  25.5164035  32.2614503  72.7377345  25.6394401
  31.8879047  72.0649413  25.4881193  41.0972187  72.0833125  33.7817748
  41.8425779  71.8942936  33.3681173  40.6809492  72.6091363  33.2231604
  41.1457161  72.1335271  33.6382321  48.4734458  79.4542354  28.7323253
  49.0242380  78.8210423  28.9720345  48.4578573  79.9857746  29.4238757
  48.5519654  79.4391302  28.8702111  42.1762864  77.6938687  27.8427849
  41.8327630  76.9729023  28.1935099  42.2755907  77.4852539  27.0006207
  42.1404907  77.5562891  27.7699529  42.6375893  84.1564391  23.3851837
  43.2033926  84.8157601  23.3010380  41.9903797  84.5014089  23.8568239
  42.6254650  84.3046333  23.4424594  34.0523907  76.1461995  38.5745444
  33.2423683  76.4519775  38.4635287  34.5298594  76.8667578  38.6898028
  34.0027386  76.2976597  38.5752515  29.9006651  75.4113525  22.8923302
  29.6131446  75.0414796  22.1555249  30.5877119  75.8808380  22.6307007
  29.9595548  75.4260494  22.7438378  32.7360322  79.2766473  24.3390707
  33.4582974  79.4407631  23.8794513  32.2568315  79.9976138  24.2330047
  32.7724053  79.4064703  24.2556321  40.6953830  75.6130272  29.7187392
  39.8564930  75.6391551  29.4825655  40.7658197  76.2601008  30.2992738
  40.5822223  75.7126398  29.7696509  39.1423108  72.5115649  24.4515008
  39.8449461  72.3123397  23.9734966  38.8767297  71.7391591  24.7583851
  39.2069740  72.3678615  24.4260449  44.5711354  80.8198259  27.0048634
  44.4845328  80.9753685  27.8583412  44.1161833  81.4636334  26.6308039
  44.4914610  80.9374014  27.0755740  27.4734845  76.1894738  23.7408583
  27.5750982  76.9920899  24.0689559  28.2690732  75.9882073  23.4431664
  27.6062751  76.2780636  23.7443939  33.9051664  73.7750934  33.5045888
  33.7134861  73.7906069  34.3545312  34.7550260  73.9714609  33.4812543
  34.0027386  73.8065285  33.6269183  28.2898577  76.3041916  31.4829705
  28.1484069  75.4525856  31.6074213  28.5739141  76.3470576  30.6591911
  28.3106423  76.1841666  31.3797329  38.4437170  78.1409006  25.6274193
  38.1971884  78.0604757  26.4610982  38.7722293  77.3562474  25.4336721
  38.4558413  78.0135271  25.7221716  42.3385218  84.8492365  29.4160974
  42.1999578  85.5473411  29.9209717  41.5585216  84.6941022  29.0597156
  42.2028445  84.9292532  29.4387248  40.6763304  81.1488741  35.6683356
  40.6711342  80.2768557  35.6725782  41.3824297  81.3476910  35.1952812
  40.7808308  81.0492615  35.5990391  34.4034197  80.8765725  35.0397176
  34.5477573  81.4566933  34.4040286  34.7509845  81.2542021  35.7447031
  34.4761658  81.0186429  35.0496171  36.5754114  80.0755893  32.8222308
  35.8277428  80.2686907  32.4170586  36.7295639  79.2501112  32.5846429
  36.4876542  79.9821004  32.7267714  43.8338591  84.2070619  20.1777474
  43.4545400  83.4207757  20.1706763  43.1704837  84.7557476  20.0349118
  43.6797066  84.1715443  20.1558270  36.8155891  73.9706444  33.7117712
  37.2728505  74.7030418  33.8390504  36.8912220  73.5472909  34.4704967
  36.8946861  74.0163682  33.8418788  29.0588883  74.2172263  34.8007155
  28.5231072  73.6052622  35.1167922  29.1206647  74.7920399  35.4540822
  28.9884515  74.2119191  34.9442582  41.2883217  67.1496319  27.5811554
  41.4066785  67.6072782  26.8478857  41.1145393  66.3441580  27.2947772
  41.2802388  67.0990091  27.4312488  34.6938269  75.9608548  30.5559536
  33.9034344  75.7800008  30.8776871  35.0898892  75.1835500  30.5389830
  34.6355145  75.8196008  30.6012084  40.0781956  83.5950978  28.2818981
  39.4026957  83.3636210  28.7832368  40.0874332  82.9872161  27.6561086
  39.9800460  83.4709903  28.2635134  37.2076099  78.4368807  35.0383034
  37.1435241  79.2978763  34.9103171  37.3473287  78.1200800  34.2378586
  37.2191570  78.5168973  34.9011247  35.8895193  81.1300946  29.1799237
  35.4657442  81.3305445  28.4438256  35.7140049  80.2829794  29.2923537
  35.8006074  81.0349728  29.0872927  37.7156783  81.0010881  23.4820573
  38.2572328  80.4981262  23.9459194  38.0303342  80.9476076  22.6710058
  37.8421180  80.9190302  23.4304385  41.5873890  85.2113528  40.5947485
  42.4008756  84.9398677  40.7552618  41.4268857  84.9121068  39.7907681
  41.6843839  85.1268454  40.4992891  38.8646052  75.8947186  33.5342874
  39.0788022  75.2558100  32.9806228  38.2479952  76.3393009  33.1050735
  38.8051382  75.8657329  33.3893305  27.7511900  78.8087948  24.9287977
  28.1310865  79.2272493  24.2648244  27.1767265  79.3901404  25.2356820
  27.7223225  78.9565807  24.8764718  41.0285140  77.5036251  34.4726181
  40.2161822  77.1962141  34.5539353  41.4875075  77.0235251  35.0368893
  40.9765525  77.3872743  34.5680775  38.2560781  69.0047121  28.5230216
  37.3854339  68.9785842  28.4763526  38.5101122  68.8324313  27.7056062
  38.1654341  68.9757265  28.3950353  35.2278760  81.0615088  17.4603359
  35.5171285  81.8379971  17.7346934  35.3150559  80.5503820  18.1617859
  35.2833017  81.1007006  17.6045857  38.1238648  78.9096322  39.2554883
  38.5938279  79.5338439  39.6422757  38.1700528  78.2413298  39.8148098
  38.2006524  78.9031002  39.3954954  35.2809921  71.0153350  29.9803687
  34.7648410  70.3233541  30.1055266  34.7203850  71.6824127  29.9266285
  35.1216435  71.0116607  29.9909753  37.3502155  71.5546310  31.8096539
  36.9633908  71.5795341  32.5910069  36.8635092  70.9887988  31.3571056
  37.2214664  71.4742061  31.8584443  43.3252134  78.1208965  30.4336241
  42.8979743  78.0335313  29.6784341  42.6878187  78.2286740  31.0191086
  43.1681742  78.1241624  30.4081683  37.0159297  68.4413295  34.1006799
  37.6452415  68.9773595  33.8227870  37.1845159  68.3490654  34.9520365
  37.1337091  68.5074657  34.1855327  36.8173212  73.2284490  36.3733211
  37.6446641  72.9569639  36.4291825  36.8381058  74.0245332  36.7297029
  36.9426062  73.3064244  36.4348394  31.3942701  80.3748353  29.5603471
  30.5530708  80.2752227  29.7682365  31.6032709  81.1443833  29.9117792
  31.3007394  80.4740396  29.6430786  28.8718268  77.9967890  27.3888222
  28.4774966  78.0710901  26.6138332  28.3158385  78.3825836  27.9396584
  28.7321081  78.0649664  27.3555882  40.5083215  70.9749184  27.0692101
  40.7132809  70.9071492  27.9149098  40.1809639  71.7808005  27.0013278
  40.4898463  71.0835124  27.1851756  35.2059366  78.3029752  28.8101069
  34.9022504  77.7485740  29.4111477  34.5038787  78.4821962  28.3229103
  35.0575576  78.2474534  28.8270775  34.2625463  75.6130272  23.3745771
  34.5385198  74.8949184  22.9623338  34.8624133  76.2115192  23.1666877
  34.3918728  75.5950642  23.2826532  43.7616903  71.5280948  26.5494866
  43.1491216  72.0151350  26.9348598  43.8581078  70.8524439  27.0932518
  43.6854800  71.4999257  26.6873725  37.7635984  73.2843789  21.6492366
  38.2179730  73.4554349  22.3740210  38.2376030  72.6711900  21.2490142
  37.9004304  73.2194674  21.6966127  31.6812132  73.9294113  31.6463122
  32.1413614  74.0033042  32.3838246  31.7268239  74.7275367  31.2962943
  31.7562687  74.0588260  31.7035878  33.3295482  74.5960808  36.2135149
  32.9381047  73.9494155  36.6490927  33.4981345  75.1872243  36.8329404
  33.2966392  74.5875075  36.3697855  47.4041931  82.5997885  31.9772383
  47.4625055  83.0484533  32.7232359  46.7708398  83.0096697  31.5402463
  47.3193226  82.7271619  32.0224931  35.1049004  79.9886323  22.7537373
  35.8491049  80.3760600  22.9920323  35.2509700  79.1443749  22.9177861
  35.2359589  79.9216796  22.8131343  37.0228579  71.7836582  27.7869234
  36.1764624  71.9559390  27.6610584  37.0199712  70.9785926  28.1235063
  36.8975729  71.6897611  27.8180361  38.0926880  75.5611797  28.6531292
  37.6186834  75.0353559  29.1636603  38.4645016  75.0141270  28.0846154
  38.0776769  75.4027793  28.6446440  28.4699910  77.5583303  34.0214838
  29.3325523  77.4579013  33.9352168  28.1391693  76.9778013  33.4600410
  28.5485106  77.4574930  33.9260244  44.3563610  80.6214172  30.0638073
  44.1161833  79.7820588  30.0680499  44.8355617  80.7014339  30.7878846
  44.3915794  80.5095572  30.1712875  40.0210379  76.4548351  21.7157046
  39.4933398  76.5377095  21.0262755  40.4806088  77.1966223  21.7121691
  40.0112230  76.5769014  21.6131741  46.3568797  77.4015630  28.0167332
  46.1178567  77.3611464  27.1788117  46.5202699  78.2486782  28.1433053
  46.3459101  77.5207715  27.9120814  42.9614827  81.7865579  33.9472377
  43.6849026  81.3338105  33.7683397  42.6964790  82.0670245  33.1644705
  43.0296101  81.7616547  33.8051093  31.8301696  76.3825752  30.6825256
  31.2054766  76.3944144  30.0751209  31.4947291  76.8585928  31.3316497
  31.6887188  76.4544269  30.6881825  32.0143445  74.7250871  16.7397941
  31.6656249  75.3770596  17.2029491  31.5339890  74.7107984  16.0121813
  31.8913688  74.8193924  16.7009033  38.7433617  81.8849457  32.0967392
  38.1290610  81.3407507  32.3916028  39.2600902  81.3713694  31.6173208
  38.7289279  81.7285866  32.0691621  37.9829914  82.9553727  29.8311691
  37.5557522  82.3303446  29.3977126  37.9754858  82.6728649  30.6570698
  37.9189055  82.8206508  29.8891518  31.0992441  77.9918900  32.9000125
  31.2585928  77.2362224  33.3051847  30.9185335  78.5409840  33.5540863
  31.0957800  77.9612714  33.0562831  39.0412744  70.1580136  33.4550914
  38.5453305  70.3543810  32.7642481  39.7981806  70.5572804  33.2839716
  39.0799569  70.2457870  33.3271051  36.3115624  73.8322482  30.0454225
  36.3358111  73.2982594  29.3567005  36.5627097  73.3239791  30.7079815
  36.3525542  73.6783386  30.0418870  32.5916946  72.5593300  29.4259969
  32.6315318  73.0602507  30.1394677  31.7666611  72.6503694  29.1565892
  32.4756472  72.6475116  29.4910507  34.7746559  82.1254040  37.5280264
  33.9242189  82.2625754  37.6637909  34.9374687  81.3917818  37.9727965
  34.6730422  82.0368141  37.6135863  34.0131309  79.0753810  31.7233868
  33.1823239  79.2427628  31.5169116  33.9582827  78.6989761  32.5082753
  33.8820724  79.0443541  31.8082396  31.8215093  72.5662703  37.3590279
  32.4467796  72.0224835  37.6319711  31.3665573  72.0857620  36.7898069
  31.8463353  72.4152184  37.3151873  32.3867353  77.3509401  22.2523986
  32.5270314  77.8481866  22.9552627  32.8849886  76.6495696  22.3938200
  32.4808434  77.3211380  22.3775565  32.4167576  78.2176512  19.5816563
  33.0512655  78.8136937  19.5166024  32.4993186  77.9179970  20.3962433
  32.5224127  78.2617421  19.6919649  45.3950141  80.7491990  32.4502927
  45.9867982  81.3889240  32.4821125  45.8309136  80.0515026  32.7394994
  45.5468573  80.7410340  32.4983760  33.9946558  74.1490488  19.5562005
  34.3162400  73.6693570  18.9021267  34.2573502  74.9590134  19.3652816
  34.0812584  74.1980386  19.4317497  39.3905713  73.5362682  31.9185484
  39.8160785  73.0835208  31.3069010  38.7762707  72.9822752  32.1950271
  39.3634359  73.3876658  31.8690509  28.9220564  80.4144353  22.8506109
  29.4312793  81.0108861  23.2317414  29.3954836  80.1470327  22.1682528
  29.0663939  80.4630169  22.8060631  37.8299936  70.0077782  25.3276061
  37.1868254  69.8575428  25.8961199  37.4899343  69.7620127  24.5625165
  37.6845014  69.9489904  25.2979076  42.4199283  77.9637208  24.7506069
  41.7490473  78.5066911  24.6219135  43.1139033  78.4332064  24.5087764
  42.4228150  78.1135480  24.6961597  42.5827410  74.4193092  27.6596443
  42.9355020  73.9922815  28.3342241  41.7242212  74.3343936  27.7897519
  42.5076855  74.3437833  27.7791453  31.2811095  77.0500612  25.7179289
  30.5623084  77.4664744  25.9852153  31.6523458  77.6154850  25.1670927
  31.2303027  77.1949893  25.6762096  40.5810676  77.6828461  31.6081285
  40.5608603  77.5011756  32.4616064  40.6289877  78.5540479  31.5840869
  40.5845317  77.7844999  31.7304580  38.5257006  84.2715653  37.5329761
  38.4852861  83.6265330  36.9474917  39.3380324  84.2152270  37.8455173
  38.6400159  84.1674619  37.4926711  37.0557670  76.0898612  21.0552669
  36.4622509  76.4115608  20.5037236  37.0932947  75.2439707  20.8473775
  36.9732059  76.0122940  20.9435440  44.0151470  69.5411504  28.5880755
  43.5082335  68.8340643  28.5201933  44.8118904  69.2104693  28.7181832
  44.0578710  69.3884655  28.5979750  39.9315486  76.0478116  24.4854419
  39.7029179  76.0710818  23.6432777  40.1913562  75.2235583  24.6049429
  39.9361674  75.9294196  24.3779617  34.2134715  77.9012589  34.0879519
  33.7013618  77.2933772  34.4464550  34.0414211  78.6169182  34.5553495
  34.1124352  77.9175888  34.2095743  29.0600429  76.3450164  36.7381881
  28.8903020  77.0051539  36.1930087  28.6166379  76.5556726  37.4594370
  28.9699763  76.4736147  36.7643510  32.9860249  74.5854662  25.7808615
  33.4617615  74.9471742  25.1458796  32.4848848  75.2411130  26.0608757
  32.9825608  74.7348851  25.7285355  46.2171610  84.0576430  21.5721620
  46.6005216  84.8067787  21.8019717  45.4215724  84.3042250  21.3133609
  46.1565392  84.2046124  21.5679193  38.0903785  75.8236834  36.5281775
  38.6475215  75.5950643  35.8960240  37.7664850  76.5842499  36.2516987
  38.1250195  75.9020670  36.3938272  25.9602494  79.2497030  31.9970371
  25.4129213  78.5797676  32.1151239  26.7494872  78.8826878  32.0613838
  25.9954677  79.0962016  32.0239071  35.8086902  78.9104487  37.4933782
  36.5598229  79.2256164  37.8073336  36.0009479  78.7083658  36.6667703
  35.9478316  78.9271869  37.4177177  35.0286902  76.7295862  19.1481998
  35.4085867  76.7475491  18.3633113  34.2879498  77.1749851  19.0272846
  34.9755740  76.7977637  19.0145567  42.6572192  75.0378053  24.7357577
  42.6566419  74.8826710  25.5941854  42.4528372  75.8841040  24.6798963
  42.6271970  75.1398674  24.8545517  24.7189463  78.4617838  29.1516394
  24.5411224  78.0094447  29.8771309  24.4308485  79.2643999  29.3354871
  24.6502416  78.5140396  29.2859897  40.3813044  79.7175555  28.3893784
  40.8766710  78.9998550  28.3497804  39.5712820  79.4146353  28.2748271
  40.3356938  79.5673201  28.3667510  42.4464863  82.4679243  31.0770913
  42.8719935  81.9453664  30.5241338  42.0821783  83.0660080  30.5559536
  42.4551466  82.4789470  30.9179923  35.9512958  70.9540977  34.3630165
  36.0840863  70.1571971  34.6911141  36.3358110  71.4807380  34.9428441
  36.0269287  70.9140894  34.4973668  39.0245313  67.8771304  30.9611258
  38.2191277  67.7669033  31.2779097  38.8952048  67.9783759  30.1041124
  38.8865446  67.8754974  30.8819299  42.4811273  74.0416796  31.5550955
  41.8974262  74.5426002  31.1428523  42.8015567  73.5346352  30.9215279
  42.4424449  74.0408631  31.4009462  35.0206073  72.9557390  21.8309630
  35.8421767  73.1255703  21.5891325  34.5575723  73.1104651  21.1075928
  35.0737235  73.0039123  21.6881274  33.6101404  70.9500153  32.6108059
  34.1545817  70.6091279  33.2012401  33.6638340  71.8085614  32.7529343
  33.6990524  71.0255412  32.7189932  52.8441265  84.5587605  25.6344905
  52.5294706  85.2491084  26.0665327  52.3268207  84.5032387  24.9330405
  52.7205736  84.6522494  25.5941854  47.8777595  86.0411100  22.6045379
  48.6063756  85.8627055  22.1583535  47.9672488  86.8829180  22.8152557
  47.9984257  86.1394979  22.5698896  54.8163550  87.8451593  29.5009503
  55.4589458  87.9149697  30.0871419  55.0686571  87.1780816  28.9989045
  54.9485682  87.7577941  29.5136783  51.4348145  86.5595854  29.9697621
  51.8158656  85.8774025  30.3565495  50.6311429  86.2705456  29.7873286
  51.3724606  86.4162902  30.0001677  52.0704771  87.6018433  33.7817748
  52.8158363  87.4128243  33.3681173  51.6542075  88.1276671  33.2231604
  52.1189745  87.6520578  33.6382321  50.1155692  88.0300957  24.4515008
  50.8182044  87.8308705  23.9734966  49.8499880  87.2576899  24.7583851
  50.1802324  87.8863923  24.4260449  52.2615801  82.6681627  27.5811554
  52.3799369  83.1258090  26.8478857  52.0877977  81.8626888  27.2947772
  52.2534972  82.6175399  27.4312488  49.2293365  84.5232429  28.5230216
  48.3586923  84.4971150  28.4763526  49.4833706  84.3509621  27.7056062
  49.1386925  84.4942573  28.3950353  48.3234739  87.0731618  31.8096539
  47.9366492  87.0980649  32.5910069  47.8367676  86.5073296  31.3571056
  48.1947247  86.9927368  31.8584443  47.9891880  83.9598603  34.1006799
  48.6184998  84.4958903  33.8227870  48.1577743  83.8675962  34.9520365
  48.1069675  84.0259965  34.1855327  51.4815799  86.4934492  27.0692101
  51.6865392  86.4256799  27.9149098  51.1542223  87.2993313  27.0013278
  51.4631047  86.6020432  27.1851756  54.7349486  87.0466256  26.5494866
  54.1223800  87.5336658  26.9348598  54.8313661  86.3709747  27.0932518
  54.6587384  87.0184565  26.6873725  50.0145328  85.6765444  33.4550914
  49.5185889  85.8729118  32.7642481  50.7714390  86.0758112  33.2839716
  50.0532152  85.7643178  33.3271051  48.8032520  85.5263089  25.3276061
  48.1600838  85.3760736  25.8961199  48.4631927  85.2805435  24.5625165
  48.6577597  85.4675212  25.2979076  54.9884054  85.0596812  28.5880755
  54.4814919  84.3525951  28.5201933  55.7851488  84.7290001  28.7181832
  55.0311293  84.9069963  28.5979750  46.9245541  86.4726285  34.3630165
  47.0573447  85.6757279  34.6911141  47.3090694  86.9992688  34.9428441
  47.0001870  86.4326202  34.4973668  49.9977896  83.3956612  30.9611258
  49.1923860  83.2854341  31.2779097  49.8684632  83.4969067  30.1041124
  49.8598029  83.3940282  30.8819299   8.0203277  14.8546442  24.9605414
   8.7270044  14.3598472  25.0892348   8.2091212  15.2955523  24.2308072
   8.1531182  14.8464792  24.8714459   5.1595571  18.2773978  22.8519489
   5.2478917  18.0900118  23.6997699   5.5885284  17.6311408  22.4524336
   5.2357673  18.1536986  22.9191241   2.7266031  17.5605138  21.8337151
   2.1636866  17.1477748  22.3576812   3.4887054  17.4858044  22.2530295
   2.7560479  17.4882539  21.9730152   5.2715630  17.7082997  25.5163273
   6.0556047  17.8213845  25.8819015   5.0712225  16.8824134  25.7121958
   5.3581656  17.6029717  25.5997659   5.4286024  19.6193099  19.1629728
   4.6301269  19.3792599  19.4203597   5.8772035  19.6707492  19.9096776
   5.3760635  19.5915490  19.3114653   4.4886761  13.3653544  27.0549916
   3.6959741  13.6797056  27.2402536   4.6035688  13.5805012  26.2170701
   4.3882171  13.4437381  26.9588251  10.7390701  14.6382725  22.0020066
  10.5029339  13.8070790  21.8832127  11.3833930  14.5868333  22.5874911
  10.7985372  14.5080413  22.0705960   2.7768326  19.6205347  20.1182741
   2.7011997  18.9514157  20.6733529   2.7058185  20.3223135  20.6323407
   2.7548933  19.6250254  20.2759589   8.3626964  15.5935736  27.5287532
   9.1761829  15.3220885  27.6892665   8.2021930  15.2943276  26.7247728
   8.4596912  15.5090662  27.4332938   8.3748208  16.6542026  22.8010373
   9.0127928  16.1602222  22.4672829   7.7322299  16.5819427  22.2162599
   8.3742434  16.5701035  22.6652728   8.4302464  17.3461834  19.4415729
   9.2194842  16.9950899  19.5617811   8.6046062  18.1598223  19.1792363
   8.5722746  17.4147691  19.4203597   5.3010079  14.6537860  24.4669808
   5.2605934  14.0087537  23.8814964   6.1133397  14.5974477  24.7795220
   5.4153233  14.5496827  24.4266757   7.8973521  18.1737028  26.5204189
   8.0070486  17.3845588  26.8760936   8.2264417  18.0842964  25.7178527
   7.9625926  18.0442881  26.4546580  22.4842459  25.0169573  10.5992027
  22.4536463  25.8714210  10.7710297  23.0823808  24.7164865  11.1578171
  22.5679617  25.0986069  10.7066830  15.6842144  24.1045224  15.3544958
  14.8280039  24.2653722  15.4054074  15.7309798  23.2337288  15.3750019
  15.5641255  23.9996026  15.3651024  10.0683284  33.6407942  11.1182189
   9.3166183  33.2623480  10.8898234  10.5169295  33.6726375  10.3701000
  10.0232950  33.5893549  10.9739691  18.9935860  30.3731749  24.9605414
  19.7002628  29.8783780  25.0892348  19.1823796  30.8140831  24.2308072
  19.1263766  30.3650100  24.8714459  15.0612535  36.0147580  12.4878848
  15.4451914  36.5834479  11.9483623  14.9971676  35.2897090  12.0084664
  15.1085962  35.9923043  12.3372710  18.5293965  26.1637268  17.9976609
  19.0749925  26.8422354  18.0570579  18.4710841  26.0224729  17.1378191
  18.6009879  26.2429269  17.8788670  11.6468040  33.6526334  13.3844962
  11.7478403  32.8426688  13.6942090  11.0509785  33.5583280  12.7544640
  11.5740578  33.5191362  13.3371200  20.3059033  27.5921875   8.8710337
  20.1898559  28.3429561   9.3002475  21.1014920  27.3345828   9.1206424
  20.4063623  27.6656722   8.9714429  11.4868779  38.5703923  14.7859818
  12.1306235  39.0117087  15.1755976  11.8125035  37.7657349  14.6990077
  11.6300608  38.5169118  14.8305295  12.1889359  31.5815898  10.1579680
  12.5105200  32.1221105   9.5540988  12.8361455  31.0112669  10.2901969
  12.3315414  31.5775073  10.0886715   6.8692304  25.3884633  18.1525172
   6.7451001  25.9747078  18.7874991   7.5210589  24.8944828  18.4537447
   6.9465954  25.4023437  18.2911101  11.8950645  28.5646350  17.4312683
  12.5399648  28.0718793  17.1123632  12.1352422  28.7071136  18.2578761
  12.0261231  28.5123792  17.5062216  14.4336737  31.4101256  17.0819576
  14.7159980  30.6152661  16.8606332  15.1622897  31.8881843  17.1024637
  14.5826301  31.3635852  17.0522591  24.4154825  30.5160618  14.0555407
  23.5852528  30.7271261  14.2188823  24.3664077  29.6897672  13.7797690
  24.2861561  30.4250224  14.0392772   6.4050409  34.5532291  14.2853502
   5.9217987  35.2782781  14.2613085   7.2173727  34.8508421  14.3963659
   6.4541156  34.7034645  14.2980781  12.4764563  33.3464472  16.8903316
  11.9591504  32.9871887  16.2864624  13.1738954  32.8226646  16.9009382
  12.5030144  33.2162160  16.8033575  16.1328155  33.7959286  22.8519489
  16.2211501  33.6085426  23.6997699  16.5617867  33.1496716  22.4524336
  16.2090257  33.6722294  22.9191241  13.6998614  33.0790446  21.8337151
  13.1369449  32.6663056  22.3576812  14.4619638  33.0043352  22.2530295
  13.7293063  33.0067846  21.9730152   9.2594606  35.0688467  14.4373781
   9.9615185  34.5540456  14.4946538   9.1792089  35.3962618  15.2420657
   9.3518366  35.0402693  14.5646574  23.9108783  23.1631018  17.8505828
  23.0737204  23.2333206  18.0853422  23.8797014  23.1655513  16.9780130
  23.7827066  23.1741245  17.7565376  10.3073512  25.3064054  23.5654197
  10.4794016  25.1969949  24.4139478  10.8442870  25.9518460  23.3285389
  10.4118516  25.3856056  23.6559293   8.5845381  31.2594819  13.9459389
   9.4234281  31.4917752  13.9933151   8.6157150  30.3899131  13.8766425
   8.7127099  31.1651766  13.9424034   9.2098084  31.6795694  18.2472695
   9.7496309  31.5366825  18.9176067   8.5268031  32.0792445  18.6156721
   9.1890238  31.7175365  18.4007117  18.6338969  27.3586695  13.4417719
  19.3896484  27.7918209  13.4806628  18.7401294  26.7091465  14.0152355
  18.7609140  27.3264179  13.5315745  21.6719140  31.1859972  14.1920122
  21.2354372  31.1896715  14.9479094  21.3382056  31.8665471  13.7599700
  21.5581760  31.2872428  14.2400955  16.2448214  33.2268305  25.5163273
  17.0288631  33.3399153  25.8819015  16.0444808  32.4009442  25.7121958
  16.3314239  33.1215024  25.5997659   4.6135229  27.8995985  18.4007117
   4.3473645  27.0835102  18.5598107   4.6273794  27.9449141  17.5302632
   4.5759952  27.7852890  18.2960599  21.5916623  18.2273800  16.4349550
  22.2342532  18.2971905  17.0211466  21.8439644  17.5603023  15.9329092
  21.7238755  18.1400149  16.4476830   9.3633836  21.4374363  21.0474124
   8.6705633  20.9671343  21.2934856   9.9794163  21.2112668  21.6215831
   9.3518366  21.3341495  21.1683277  16.4018607  35.1378407  19.1629728
  15.6033853  34.8977907  19.4203597  16.8504619  35.1892800  19.9096776
  16.3493219  35.1100798  19.3114653  24.8063487  27.9040892  13.0839760
  25.4679921  27.3431561  12.9835668  24.1654899  27.4092923  13.4092451
  24.8092354  27.7477301  13.1172100   5.0228643  28.6854765  15.6818861
   4.8404216  28.6601651  14.8291153   5.7578312  29.1553702  15.7207770
   5.1042707  28.7516127  15.5616779  21.0928317  28.9206274  12.8251748
  21.3283906  29.0651473  11.9978599  21.2417881  29.6848683  13.2183262
  21.1494121  29.0545329  12.7615352   8.0874395  25.4039767  22.1900969
   8.8114367  25.3892798  22.6765864   8.1890531  26.1135123  21.6922938
   8.2092604  25.5064471  22.1879756  22.9218774  27.7607940  10.6621352
  23.2526991  28.2935581  10.0561447  23.4951862  27.8146828  11.3183303
  23.0552453  27.8477509  10.6699134  15.4619344  28.8838852  27.0549916
  14.6692325  29.1982364  27.2402536  15.5768271  29.0990320  26.2170701
  15.3614755  28.9622689  26.9588251  18.1350663  25.6072843  11.3444932
  18.2297518  26.3462137  11.7984558  17.5109507  25.1790319  11.7779497
  18.0559693  25.6534164  11.4753080  16.3903137  28.7859056  21.9935213
  16.9641999  28.1486300  22.1483777  16.3117941  28.7863138  21.1244871
  16.4636372  28.6924167  21.8881624  11.7466856  27.2182321  14.0456411
  11.4886100  26.3854056  14.0187710  11.8015338  27.4439934  13.2048911
  11.7166633  27.1280092  13.9176547  14.3874856  23.2443433  19.3913684
  13.9989289  22.8197650  18.7365875  13.7229555  23.4925582  19.8990710
  14.2321784  23.2182154  19.3701552  24.0298126  23.0018437  12.1661514
  23.7734690  22.1898379  11.9759397  24.8727439  23.0096004  11.9391701
  24.1164151  22.8830435  12.1046331  18.2101218  16.9418061  16.9037668
  18.5911730  16.2596232  17.2905542  17.4064502  16.6527663  16.7213332
  18.1477680  16.7985110  16.9341724  21.7123285  30.1568033  22.0020066
  21.4761922  29.3256098  21.8832127  22.3566514  30.1053641  22.5874911
  21.7717956  30.0265721  22.0705960  11.3621703  30.9463555  12.7162803
  11.9995650  30.7075302  13.2614596  11.7876774  31.1500714  11.9815963
  11.5197869  30.9414565  12.6879960   6.0534345  33.1851891  16.5997107
   6.0938491  33.4566742  15.7716886   6.6128869  33.7093799  17.0154894
   6.1417691  33.3027646  16.5388995  12.1693058  19.4472260  26.7700276
  11.8546499  20.2171822  26.5069839  11.8482991  18.8842516  26.1852503
  12.0751977  19.4782528  26.6441626  22.7359705  29.9412482  18.0648361
  22.4305522  30.6740539  18.4261676  22.0165921  29.5350412  17.7841147
  22.5847048  29.9894215  18.0761498  13.7443175  31.4235977  14.3956589
  13.8182183  31.2611149  15.2498439  14.5612681  31.6126167  14.1517071
  13.8759533  31.4272720  14.4854615  28.4361498  26.5805483  17.3916705
  28.3685998  26.6001442  16.5219292  28.4217160  27.4235810  17.6172376
  28.4240254  26.7079217  17.2969182   7.5048932  31.7693840  11.4251033
   6.6787049  32.0155577  11.2985311   7.5660923  31.6905921  12.2913091
   7.3923098  31.7938789  11.5339977  18.8457844  17.9840640  20.7157795
  19.5911436  17.7950451  20.3021220  18.4295149  18.5098878  20.1571651
  18.8942818  18.0342786  20.5722368  12.2847761  34.3870720   9.1270062
  12.5746059  33.9959702   8.4029289  13.0151241  34.5687425   9.5675338
  12.4354645  34.3564534   9.0852869  26.2220115  25.3549869  15.6663300
  26.7728036  24.7217938  15.9060392  26.2064230  25.8865262  16.3578804
  26.3005311  25.3398817  15.8042158  12.8742506  29.1888466  20.2123193
  12.3754199  29.9004234  20.2908081  13.6842730  29.5089133  20.1741355
  12.9198612  29.3415315  20.2179761  10.2253676  36.3638103  12.1930212
  10.0053972  36.0735457  12.9856879  10.0048198  35.7053058  11.6648125
  10.1601270  36.2237811  12.2319121   9.1370623  28.4511419  14.4585914
   8.8483872  27.8248891  14.9931641  10.0053971  28.3931707  14.5250594
   9.2230875  28.3498964  14.5476868  19.9248521  23.5946203  14.7767896
  19.5813287  22.8736538  15.1275145  20.0241564  23.3860054  13.9346254
  19.8890564  23.4570406  14.7039576  12.3921632  37.7367493  10.9760905
  13.0445690  37.2043935  11.2051931  11.6947241  37.3836145  11.3628779
  12.3852350  37.6057016  11.0673072  20.3861550  30.0571907  10.3191884
  20.9519583  30.7165117  10.2350427  19.7389454  30.4021605  10.7908286
  20.3740307  30.2053848  10.3764640  11.8009564  22.0469511  25.5085491
  10.9909339  22.3527290  25.3975334  12.2784250  22.7675093  25.6238075
  11.7513042  22.1984112  25.5092562  10.6601123  31.2615232  15.7568394
  10.1381877  31.4015523  16.4420259  11.0475144  30.5025896  15.9470512
  10.6404824  31.1700756  15.8869471  16.8568128  33.0010691   9.7428963
  16.6154804  32.2678552   9.3356028  17.0369461  33.5497548   9.0895296
  16.8475752  32.9733082   9.5859186  18.4439487  21.5137787  16.6527439
  17.6050587  21.5399066  16.4165702  18.5143854  22.1608523  17.2332785
  18.3307880  21.6133913  16.7036556   8.1353596  27.5832061  20.3784894
   8.6474693  27.8616314  19.7293653   7.8489938  28.3221355  20.7447707
   8.1688459  27.7334415  20.3374772  22.3197010  26.7205774  13.9388680
  22.2330985  26.8761200  14.7923459  21.8647490  27.3643850  13.5648085
  22.2400267  26.8381529  14.0095787  11.6537321  19.6758450  20.4385935
  11.4620518  19.6913584  21.2885359  12.5035917  19.8722124  20.4152590
  11.7513043  19.7072801  20.5609230   6.0384234  22.2049431  18.4169752
   5.8969726  21.3533372  18.5414260   6.3224797  22.2478092  17.5931958
   6.0592080  22.0849181  18.3137376  16.1922826  24.0416521  12.5614240
  15.9457541  23.9612272  13.3951029  16.5207949  23.2569989  12.3676767
  16.2044070  23.9142787  12.6561763  20.0870875  30.7499881  16.3501021
  19.9485235  31.4480926  16.8549764  19.3070873  30.5948537  15.9937203
  19.9514102  30.8300047  16.3727295  18.4248960  27.0496256  22.6023403
  18.4196999  26.1776073  22.6065829  19.1309954  27.2484425  22.1292859
  18.5293964  26.9500130  22.5330438  12.1519854  26.7773240  21.9737223
  12.2963229  27.3574448  21.3380333  12.4995502  27.1549537  22.6787078
  12.2247315  26.9193944  21.9836218  14.3239771  25.9763408  19.7562355
  13.5763085  26.1694423  19.3510633  14.4781296  25.1508628  19.5186476
  14.2362199  25.8828520  19.6607760  11.2247609  34.9676012  18.8398250
  11.3737172  34.4078928  18.1871654  12.0047611  35.0468013  19.2230769
  11.3621702  34.8961577  18.7995199  21.5824248  30.1078134   7.1117520
  21.2031057  29.3215272   7.1046810  20.9190493  30.6564991   6.9689165
  21.4282723  30.0722958   7.0898317  13.7500909  35.1390655  20.1182741
  13.6744580  34.4699465  20.6733529  13.6790768  35.8408443  20.6323407
  13.7281516  35.1435562  20.2759589  14.5641548  19.8713959  20.6457758
  15.0214162  20.6037933  20.7730551  14.6397877  19.4480424  21.4045014
  14.6432518  19.9171197  20.7758835   6.8074539  20.1179779  21.7347202
   6.2716729  19.5060137  22.0507969   6.8692304  20.6927915  22.3880869
   6.7370172  20.1126706  21.8782629  14.4071156  33.6591653  10.9506347
  15.1721047  33.3901297  10.6289011  14.3049246  33.1741664  11.6676409
  14.5052652  33.5481218  11.0086174  12.4423926  21.8616063  17.4899582
  11.6520001  21.6807523  17.8116918  12.8384549  21.0843015  17.4729877
  12.3840802  21.7203524  17.5352131  17.8267612  29.4958493  15.2159028
  17.1512614  29.2643725  15.7172415  17.8359988  28.8879676  14.5901133
  17.7286117  29.3717418  15.1975180  14.9561756  24.3376322  21.9723081
  14.8920897  25.1986278  21.8443218  15.0958944  24.0208315  21.1718633
  14.9677226  24.4176489  21.8351294  19.8284347  32.3523625   7.4469206
  19.9104184  33.1590612   7.1230657  20.3134089  32.3719585   8.1709980
  19.9121505  32.4744288   7.5056105  13.6380850  27.0308461  16.1139284
  13.2143099  27.2312960  15.3778302  13.4625705  26.1837309  16.2263584
  13.5491731  26.9357243  16.0212974  13.1392544  38.5458974  18.5760741
  13.6288474  37.8469764  18.3936406  12.5676776  38.2482844  19.1636799
  13.1277074  38.3985198  18.6361782  19.3359547  31.1121044  27.5287532
  20.1494412  30.8406193  27.6892665  19.1754513  30.8128584  26.7247728
  19.4329496  31.0275970  27.4332938  16.6131709  21.7954701  20.4682920
  16.8273679  21.1565615  19.9146274  15.9965608  22.2400525  20.0390782
  16.5537038  21.7664845  20.3233351  18.0236377  34.7173449  11.9137141
  17.6316169  34.4140164  11.1960007  18.1789449  35.5542539  11.7242095
  17.9889967  34.7957286  11.7793638  18.7770797  23.4043766  21.4066227
  17.9647479  23.0969656  21.4879400  19.2360732  22.9242766  21.9708940
  18.7251182  23.2880258  21.5020822  18.1876052  31.2823438  11.8543172
  17.8290707  31.4538081  12.6307204  17.7014763  31.7436644  11.2971170
  18.0634749  31.3762409  11.8868441  15.8724305  24.8103838  26.1894930
  16.3423936  25.4345954  26.5762804  15.9186185  24.1420813  26.7488144
  15.9492180  24.8038518  26.3295001  15.0987812  17.4553825  18.7436586
  14.7119565  17.4802857  19.5250116  14.6120749  16.8895504  18.2911103
  14.9700321  17.3749576  18.7924490  19.3480791  32.1727334  22.8010373
  19.9860512  31.6787530  22.4672829  18.7054883  32.1004734  22.2162599
  19.3475018  32.0886342  22.6652728  21.0737791  24.0216480  17.3676288
  20.6465399  23.9342829  16.6124388  20.4363844  24.1294255  17.9531132
  20.9167399  24.0249140  17.3421730  14.7644953  14.3420811  21.0346846
  15.3938071  14.8781111  20.7567916  14.9330816  14.2498169  21.8860412
  14.8822748  14.4082173  21.1195374  14.5658868  19.1292005  23.3073258
  15.3932298  18.8577154  23.3631872  14.5866714  19.9252847  23.6637076
  14.6911718  19.2071759  23.3688441  19.4035048  32.8647142  19.4415729
  20.1927426  32.5136207  19.5617811  19.5778646  33.6783531  19.1792363
  19.5455329  32.9332999  19.4203597   9.1428358  26.2755868  16.4943518
   8.3016365  26.1759742  16.7022412   9.3518366  27.0451348  16.8457839
   9.0493051  26.3747911  16.5770833  12.9545023  24.2037267  15.7441116
  12.6508161  23.6493255  16.3451523  12.2524444  24.3829477  15.2569150
  12.8061233  24.1482050  15.7610821  11.0163374  31.4186988  20.4513214
  10.9083729  31.4289050  21.3175272  11.2259156  32.2441768  20.2618167
  11.0313485  31.5428063  20.5517305   9.0337166  28.6699630  17.9135151
   8.4425099  29.3109128  17.8838166   9.7958190  29.0937248  17.8866451
   9.0585427  28.8275469  17.9050298   9.4297789  19.8301628  18.5803169
   9.8899270  19.9040557  19.3178293   9.4753896  20.6282882  18.2302990
   9.5048344  19.9595775  18.6375925  11.0781139  20.4968323  23.1475196
  10.6866704  19.8501670  23.5830974  11.2467001  21.0879758  23.7669451
  11.0452049  20.4882591  23.3037902  25.1527588  28.5005400  18.9112429
  25.2110711  28.9492049  19.6572406  24.5194055  28.9104213  18.4742509
  25.0678883  28.6279135  18.9564978  18.7926682  34.1208942  15.3467176
  18.5946371  34.6099756  14.6523387  18.1714393  34.3250183  15.9251309
  18.6714247  34.2225480  15.3290399  15.8412537  21.4619312  15.5871339
  15.3672491  20.9361074  16.0976650  16.2130672  20.9148785  15.0186201
  15.8262425  21.3035309  15.5786486   6.2185567  23.4590819  20.9554885
   7.0811180  23.3586528  20.8692215   5.8877350  22.8785528  20.3940457
   6.2970763  23.3582445  20.8600291  22.1049267  26.5221688  16.9978120
  21.8647490  25.6828103  17.0020546  22.5841274  26.6021854  17.7218893
  22.1401451  26.4103087  17.1052922  24.1054454  23.3023145  14.9507379
  23.8664224  23.2618979  14.1128163  24.2688355  24.1494297  15.0773100
  24.0944758  23.4215230  14.8460861  20.7100484  27.6873094  20.8812424
  21.4334683  27.2345621  20.7023444  20.4450447  27.9677760  20.0984752
  20.7781758  27.6624063  20.7391139   9.5787353  22.2833268  17.6165303
   8.9540423  22.2951660  17.0091256   9.2432947  22.7593443  18.2656543
   9.4372844  22.3551785  17.6221872   6.2913028  30.3433728  19.0569067
   5.7612953  29.6526167  19.1064042   6.5638122  30.3343913  18.2281776
   6.2537750  30.2400860  18.9416483  16.4919274  27.7856972  19.0307439
  15.8776267  27.2415023  19.3256074  17.0086559  27.2721209  18.5513255
  16.4774936  27.6293381  19.0031667  15.7315571  28.8561242  16.7651738
  15.3043179  28.2310961  16.3317173  15.7240515  28.5736164  17.5910745
  15.6674712  28.7214023  16.8231565   8.8478098  23.8926416  19.8340172
   9.0071585  23.1369740  20.2391894   8.6670992  24.4417355  20.4880909
   8.8443457  23.8620229  19.9902878  16.7898401  16.0587651  20.3890961
  16.2938962  16.2551325  19.6982528  17.5467463  16.4580319  20.2179763
  16.8285226  16.1465385  20.2611098  14.0601281  19.7329997  16.9794272
  14.0843768  19.1990109  16.2907052  14.3112754  19.2247306  17.6419862
  14.1011199  19.5790901  16.9758916  12.5232216  28.0261555  24.4620311
  11.6727846  28.1633269  24.5977955  12.6860343  27.2925333  24.9068012
  12.4216079  27.9375656  24.5475910  11.7616966  24.9761325  18.6573915
  10.9308896  25.1435143  18.4509163  11.7068483  24.5997276  19.4422800
  11.6306381  24.9451056  18.7422443   9.5700749  18.4670218  24.2930326
  10.1953453  17.9232351  24.5659758   9.1151229  17.9865136  23.7238116
   9.5949010  18.3159699  24.2491920  23.1435798  26.6499505  19.3842974
  23.7353638  27.2896756  19.4161172  23.5794793  25.9522542  19.6735041
  23.2954229  26.6417855  19.4323806  14.9729188  31.0716877  20.0100868
  14.4654279  31.6252724  20.4541498  14.6755834  31.1325167  19.1919642
  14.8534073  31.1623189  19.9549324  17.1391370  19.4370197  18.8525531
  17.5646442  18.9842723  18.2409057  16.5248363  18.8830268  19.1290318
  17.1120016  19.2884173  18.8030556  17.5836968  34.9880135   7.9404811
  16.8666278  34.8140997   7.4752048  18.2343706  34.7532707   7.4080297
  17.5738819  34.9275928   7.7934029  20.1684940  23.8644724  11.6846116
  19.4976129  24.4074426  11.5559182  20.8624690  24.3339579  11.4427811
  20.1713807  24.0142995  11.6301644  14.2171673  36.0041436  16.9157874
  13.9937328  35.2460265  17.2841901  13.7281517  36.0339457  16.1938314
  14.1115122  35.8963660  16.8634615  20.3313067  20.3200607  14.5936489
  20.6840677  19.8930330  15.2682288  19.4727869  20.2351451  14.7237566
  20.2562512  20.2445348  14.7131500  18.3296333  23.5835976  18.5421332
  18.3094260  23.4019271  19.3956111  18.3775534  24.4547994  18.5180915
  18.3330974  23.6852514  18.6644626  16.2742663  30.1723168  24.4669808
  16.2338518  29.5272845  23.8814964  17.0865981  30.1159785  24.7795220
  16.3885816  30.0682135  24.4266757  12.8650130  36.2241894  14.3694959
  12.4510529  35.5616024  13.9798801  13.5497504  36.3719753  13.8490653
  12.9048502  36.1482552  14.2351456  16.2315424  35.3831979  15.1218576
  15.8331708  35.4934249  14.3539396  15.6166644  35.5914045  15.7045135
  16.0814314  35.4305547  15.0949875  21.7637127  15.4419019  15.5220802
  21.2567992  14.7348159  15.4541979  22.5604561  15.1112208  15.6521879
  21.8064366  15.2892170  15.5319797  11.9620371  23.8020104  21.0219566
  11.4499274  23.1941287  21.3804597  11.7899868  24.5176697  21.4893542
  11.8610008  23.8183404  21.1435790   6.8086086  22.2457680  23.6721928
   6.6388676  22.9059055  23.1270134   6.3652036  22.4564241  24.3934417
   6.7185420  22.3743662  23.6983557  23.9657267  29.9583946   8.5061666
  24.3490873  30.7075302   8.7359763  23.1701380  30.2049765   8.2473655
  23.9051049  30.1053640   8.5019240  15.8389442  21.7244349  23.4621821
  16.3960872  21.4958159  22.8300287  15.5150507  22.4850015  23.1857034
  15.8735852  21.8028186  23.3278319   3.7088151  25.1504545  18.9310417
   3.1614870  24.4805191  19.0491286   4.4980529  24.7834393  18.9953885
   3.7440334  24.9969532  18.9579118  13.5572559  24.8112002  24.4273829
  14.3083886  25.1263679  24.7413383  13.7495135  24.6091173  23.6007750
  13.6963973  24.8279384  24.3517224  18.1298701  25.6183070  15.3233831
  18.6252367  24.9006065  15.2837851  17.3198477  25.3153868  15.2088318
  18.0842594  25.4680717  15.3007557  20.1950520  28.3686758  18.0110960
  20.6205592  27.8461180  17.4581385  19.8307440  28.9667595  17.4899583
  20.2037123  28.3796985  17.8519969   9.8304600  36.6650975  16.7708305
  10.1451159  37.4787364  16.7786087  10.2398013  36.2801194  17.4390464
   9.9372698  36.7279678  16.8712397  16.7829120  32.0821022  14.3412117
  17.2540298  32.7961285  14.5102102  17.1189298  31.4819772  14.8771987
  16.9024235  32.0992486  14.4444493  18.8706104  33.6922336  26.5204189
  18.9803070  32.9030896  26.8760936  19.1997001  33.6028272  25.7178527
  18.9358510  33.5628189  26.4546580  13.6998614  16.8548493  21.2970212
  13.8326520  16.0579486  21.6251187  14.0843767  17.3814896  21.8768487
  13.7754943  16.8148409  21.4313715  17.4203066  31.8738956  21.1039810
  16.8724012  31.2496840  20.8359875  17.8816095  32.0633228  20.3883889
  17.4070275  31.8098007  20.9590241  20.2296930  19.9424311  18.4891002
  19.6459919  20.4433517  18.0768569  20.5501224  19.4353867  17.8555325
  20.1910106  19.9416146  18.3349509  11.3587061  16.8507668  19.5448106
  11.9031474  16.5098795  20.1352447  11.4123997  17.7093129  19.6869390
  11.4476181  16.9262927  19.6529979   7.1717620  30.6124084  16.4186914
   7.7762477  30.5719918  15.7900734   6.9644933  31.4595236  16.4490969
   7.2306517  30.7312086  16.3303030  16.9861392  32.8790029  17.6349151
  17.8059766  32.7352995  17.8965446  16.7055470  33.5036228  18.1765589
  17.0658136  32.9500381  17.7537090   2.4068902  29.5958701  16.2885837
   2.3093180  28.7854973  16.5975893   3.1897772  29.5750495  15.9032105
   2.5085039  29.4725792  16.2772700  33.4575043  40.5354881  10.5992027
  33.4269047  41.3899517  10.7710297  34.0556391  40.2350173  11.1578171
  33.5412200  40.6171377  10.7066830  26.6574727  39.6230532  15.3544958
  25.8012623  39.7839030  15.4054074  26.7042381  38.7522596  15.3750019
  26.5373839  39.5181334  15.3651024  21.0415867  49.1593250  11.1182189
  20.2898767  48.7808788  10.8898234  21.4901879  49.1911683  10.3701000
  20.9965534  49.1078857  10.9739691  26.4940827  49.5818619   6.5467736
  26.1592195  50.2595541   6.1111959  27.0067697  49.1923930   5.9584608
  26.5206408  49.6243197   6.3954528  26.0345118  51.5332888  12.4878848
  26.4184498  52.1019786  11.9483623  25.9704259  50.8082398  12.0084664
  26.0818545  51.5108351  12.3372710  29.5026548  41.6822576  17.9976609
  30.0482508  42.3607662  18.0570579  29.4443425  41.5410037  17.1378191
  29.5742463  41.7614577  17.8788670  22.6200623  49.1711642  13.3844962
  22.7210986  48.3611996  13.6942090  22.0242369  49.0768588  12.7544640
  22.5473162  49.0376670  13.3371200  31.2791617  43.1107183   8.8710337
  31.1631143  43.8614869   9.3002475  32.0747504  42.8531136   9.1206424
  31.3796206  43.1842030   8.9714429  22.4601363  54.0889231  14.7859818
  23.1038818  54.5302395  15.1755976  22.7857618  53.2842657  14.6990077
  22.6033192  54.0354426  14.8305295  15.8165668  45.1931928  13.0097295
  15.5815852  44.3599581  12.9029564  15.9551308  45.4736594  12.1958496
  15.8021330  45.1115432  12.8739650  18.1155755  37.3617659  15.9081603
  17.4960787  36.7710306  15.7391618  18.0139619  37.9529094  15.2745926
  18.0093431  37.3621741  15.7886593  23.1621943  47.1001206  10.1579680
  23.4837784  47.6406413   9.5540988  23.8094039  46.5297977  10.2901969
  23.3047998  47.0960381  10.0886715  25.2123651  39.1017201  10.2414066
  25.9103815  39.2805328  10.7335530  25.5275983  38.5787540   9.6184456
  25.3618988  39.0510973  10.2216076  17.8424888  40.9069941  18.1525172
  17.7183585  41.4932386  18.7874991  18.4943173  40.4130136  18.4537447
  17.9198537  40.9208745  18.2911101  25.4011586  45.4887646  10.2293858
  25.8405222  44.8804746  10.6748630  25.2516249  45.1095019   9.4579323
  25.4433052  45.3426117  10.1813025  22.8683229  44.0831658  17.4312683
  23.5132232  43.5904101  17.1123632  23.1085006  44.2256444  18.2578761
  22.9993814  44.0309100  17.5062216  25.4069320  46.9286563  17.0819576
  25.6892563  46.1337969  16.8606332  26.1355481  47.4067151  17.1024637
  25.5558884  46.8821160  17.0522591  23.3850514  34.4709597  14.3235341
  23.0553844  34.9220741  13.6539040  22.7095516  34.3925761  14.8708347
  23.2360951  34.5260733  14.3058564  29.0020923  43.8414827   7.1824627
  28.9172218  44.6975794   7.3274196  29.4905306  43.5659151   7.8506786
  29.0609820  43.9272148   7.3026708  30.5926922  30.4595120  12.5684952
  30.2780363  31.1498599  13.0005374  30.0753864  30.4039903  11.8670452
  30.4691392  30.5530009  12.5281901  29.9339356  40.4599621   8.6822362
  29.4050827  40.6759255   9.3419668  30.4564376  41.1535760   8.6023331
  29.9327809  40.5942758   8.7677961  35.3887409  46.0345926  14.0555407
  34.5585112  46.2456569  14.2188823  35.3396661  45.2082980  13.7797690
  35.2594144  45.9435532  14.0392772  21.8238964  44.3562838   7.4829830
  21.2396179  44.8612869   7.8895694  21.4209059  44.1305225   6.7426422
  21.6778267  44.3971086   7.4334855  17.3782992  50.0717599  14.2853502
  16.8950570  50.7968089  14.2613085  18.1906310  50.3693729  14.3963659
  17.4273740  50.2219953  14.2980781  23.4497146  48.8649780  16.8903316
  22.9324088  48.5057195  16.2864624  24.1471538  48.3411954  16.9009382
  23.4762727  48.7347468  16.8033575  27.1060738  49.3144594  22.8519489
  27.1944084  49.1270734  23.6997699  27.5350451  48.6682023  22.4524336
  27.1822841  49.1907602  22.9191241  24.6731198  48.5975754  21.8337151
  24.1102033  48.1848364  22.3576812  25.4352222  48.5228660  22.2530295
  24.7025647  48.5253154  21.9730152  26.2816178  40.6028490   5.9598751
  26.5212182  40.8106474   5.1474094  26.6032019  39.7985999   6.0687695
  26.3653336  40.5142591   5.8559304  21.5906468  32.5321886   9.8058289
  22.3452436  32.9000203   9.5675339  21.4134003  32.9061440  10.5737468
  21.6760947  32.6420074   9.8843177  20.2327190  50.5873775  14.4373781
  20.9347769  50.0725764  14.4946538  20.1524673  50.9147926  15.2420657
  20.3250950  50.5588001  14.5646574  34.8841367  38.6816326  17.8505828
  34.0469788  38.7518513  18.0853422  34.8529598  38.6840821  16.9780130
  34.7559649  38.6926553  17.7565376  21.2806096  40.8249362  23.5654197
  21.4526600  40.7155257  24.4139478  21.8175454  41.4703767  23.3285389
  21.3851100  40.9041364  23.6559293  19.9463533  34.9392205   6.5036402
  19.7639106  35.1564086   5.6777394  20.8089146  35.0531218   6.5595016
  20.0468122  34.9882103   6.3890889  19.5577965  46.7780127  13.9459389
  20.3966864  47.0103060  13.9933151  19.5889734  45.9084438  13.8766425
  19.6859683  46.6837074  13.9424034  20.1830668  47.1981002  18.2472695
  20.7228893  47.0552133  18.9176067  19.5000614  47.5977753  18.6156721
  20.1622822  47.2360673  18.4007117  25.6263252  31.9418616   9.5385425
  26.3549413  31.7634570   9.0923582  25.7158145  32.7836695   9.7492604
  25.7469914  32.0402494   9.5038943  29.6071553  42.8772003  13.4417719
  30.3629068  43.3103517  13.4806628  29.7133877  42.2276773  14.0152355
  29.7341723  42.8449487  13.5315745  32.6451724  46.7045280  14.1920122
  32.2086956  46.7082023  14.9479094  32.3114639  47.3850779  13.7599700
  32.5314344  46.8057736  14.2400955  27.2180798  48.7453613  25.5163273
  28.0021214  48.8584461  25.8819015  27.0177392  47.9194750  25.7121958
  27.3046823  48.6400332  25.5997659  15.5867813  43.4181293  18.4007117
  15.3206228  42.6020410  18.5598107  15.6006377  43.4634449  17.5302632
  15.5492535  43.3038198  18.2960599  32.5649207  33.7459108  16.4349550
  33.2075115  33.8157213  17.0211466  32.8172228  33.0788331  15.9329092
  32.6971339  33.6585457  16.4476830  19.4925560  38.2166377   5.0158875
  18.7783737  37.9304557   5.4281307  19.9769529  38.5563003   5.6565262
  19.4584923  38.2248027   5.1714510  20.3366419  36.9559671  21.0474124
  19.6438216  36.4856651  21.2934856  20.9526747  36.7297976  21.6215831
  20.3250949  36.8526803  21.1683277  27.3751191  50.6563715  19.1629728
  26.5766437  50.4163215  19.4203597  27.8237202  50.7078108  19.9096776
  27.3225802  50.6286106  19.3114653  35.7796070  43.4226200  13.0839760
  36.4412504  42.8616868  12.9835668  35.1387482  42.9278231  13.4092451
  35.7824938  43.2662609  13.1172100  26.6672878  46.7196331   5.3920683
  27.0824026  46.3881355   4.7005179  25.8364808  46.4865234   5.2640819
  26.6060887  46.6367587   5.2711530  15.9961227  44.2040072  15.6818861
  15.8136800  44.1786958  14.8291153  16.7310896  44.6739010  15.7207770
  16.0775291  44.2701435  15.5616779  32.0660901  44.4391582  12.8251748
  32.3016490  44.5836781  11.9978599  32.2150464  45.2033990  13.2183262
  32.1226704  44.5730637  12.7615352  19.0606978  40.9225075  22.1900969
  19.7846951  40.9078106  22.6765864  19.1623115  41.6320431  21.6922938
  19.1825187  41.0249779  22.1879756  33.8951358  43.2793248  10.6621352
  34.2259575  43.8120888  10.0561447  34.4684446  43.3332136  11.3183303
  34.0285037  43.3662817  10.6699134  26.4351928  44.4024160  27.0549916
  25.6424909  44.7167672  27.2402536  26.5500855  44.6175628  26.2170701
  26.3347338  44.4807997  26.9588251  29.1083247  41.1258151  11.3444932
  29.2030101  41.8647445  11.7984558  28.4842090  40.6975627  11.7779497
  29.0292277  41.1719472  11.4753080  27.3635721  44.3044364  21.9935213
  27.9374582  43.6671608  22.1483777  27.2850524  44.3048446  21.1244871
  27.4368955  44.2109475  21.8881624  15.9632137  41.0833573  15.8317927
  16.5405640  40.9470024  16.4710173  15.2646199  40.6269357  16.0863512
  15.9453158  40.9955839  15.9640217  29.3606268  42.9706891   4.5781884
  29.2786431  43.0409078   5.4436871  29.9985988  43.5336635   4.3865625
  29.4426105  43.0645862   4.6771834  22.7199439  42.7367629  14.0456411
  22.4618683  41.9039364  14.0187710  22.7747922  42.9625242  13.2048911
  22.6899217  42.6465400  13.9176547  27.8000489  34.8396079  14.1460503
  27.0956816  34.3505265  14.3044422  27.8485464  34.8518554  13.2748948
  27.7030541  34.7685727  14.0399843  21.6934151  40.2905391  14.5321305
  21.1183743  40.4497560  15.1685266  21.3169828  39.6540800  14.0689756
  21.5536964  40.2203204  14.5575864  25.3607440  38.7628741  19.3913684
  24.9721873  38.3382958  18.7365875  24.6962138  39.0110890  19.8990710
  25.2054368  38.7367462  19.3701552  35.0030709  38.5203745  12.1661514
  34.7467274  37.7083687  11.9759397  35.8460023  38.5281312  11.9391701
  35.0896734  38.4015743  12.1046331  11.4390970  39.9345466  12.5465746
  11.5251222  39.5577334  13.3279276  12.0666768  39.5605912  12.0685704
  11.5447521  39.8230948  12.5911223  29.1833802  32.4603369  16.9037668
  29.5644313  31.7781540  17.2905542  28.3797086  32.1712971  16.7213332
  29.1210263  32.3170418  16.9341724  26.4646378  42.9927345   7.5890491
  27.2787017  43.2842238   7.4773262  26.4005519  42.3387207   7.0148784
  26.5749117  42.9392540   7.4879328  32.6855868  45.6753341  22.0020066
  32.4494506  44.8441406  21.8832127  33.3299097  45.6238948  22.5874911
  32.7450539  45.5451029  22.0705960  22.3354286  46.4648863  12.7162803
  22.9728233  46.2260610  13.2614596  22.7609358  46.6686022  11.9815963
  22.4930453  46.4599873  12.6879960  17.0266929  48.7037199  16.5997107
  17.0671074  48.9752050  15.7716886  17.5861453  49.2279107  17.0154894
  17.1150275  48.8212954  16.5388995  22.9757101  41.6851152   7.0537692
  23.3602254  41.4658859   7.8054237  22.7268722  42.5114098   7.1838769
  22.9959174  41.7749299   7.1838769  33.7092289  45.4597790  18.0648361
  33.4038106  46.1925847  18.4261676  32.9898505  45.0535720  17.7841147
  33.5579631  45.5079523  18.0761498  24.7175758  46.9421285  14.3956589
  24.7914767  46.7796457  15.2498439  25.5345265  47.1311475  14.1517071
  24.8492117  46.9458028  14.4854615  39.4094081  42.0990791  17.3916705
  39.3418581  42.1186750  16.5219292  39.3949744  42.9421118  17.6172376
  39.3972838  42.2264525  17.2969182  18.4781515  47.2879148  11.4251033
  17.6519633  47.5340885  11.2985311  18.5393506  47.2091229  12.2913091
  18.3655682  47.3124097  11.5339977  20.6957539  33.3548089  12.3846473
  19.8279964  33.4270689  12.4504082  20.9832743  34.1570168  12.5734448
  20.6097287  33.4842236  12.4221239  29.8190428  33.5025948  20.7157795
  30.5644020  33.3135759  20.3021220  29.4027732  34.0284186  20.1571651
  29.8675402  33.5528094  20.5722368  23.2580344  49.9056028   9.1270062
  23.5478643  49.5145010   8.4029289  23.9883825  50.0872733   9.5675338
  23.4087228  49.8749842   9.0852869  37.1952698  40.8735177  15.6663300
  37.7460620  40.2403246  15.9060392  37.1796814  41.4050570  16.3578804
  37.2737895  40.8584125  15.8042158  23.8475089  44.7073774  20.2123193
  23.3486783  45.4189542  20.2908081  24.6575314  45.0274441  20.1741355
  23.8931196  44.8600623  20.2179761  21.1986260  51.8823411  12.1930212
  20.9786555  51.5920765  12.9856879  20.9780782  51.2238366  11.6648125
  21.1333854  51.7423119  12.2319121  20.1103207  43.9696727  14.4585914
  19.8216456  43.3434198  14.9931641  20.9786555  43.9117015  14.5250594
  20.1963459  43.8684271  14.5476868  30.8981105  39.1131511  14.7767896
  30.5545871  38.3921846  15.1275145  30.9974147  38.9045362  13.9346254
  30.8623148  38.9755714  14.7039576  23.3654215  53.2552801  10.9760905
  24.0178273  52.7229243  11.2051931  22.6679824  52.9021453  11.3628779
  23.3584933  53.1242324  11.0673072  20.3135480  45.6091978  10.3828279
  21.0681448  45.9905017  10.5963741  19.7206093  46.0603122  10.8374975
  20.3372194  45.7320806  10.4811157  31.3594134  45.5757215  10.3191884
  31.9252166  46.2350425  10.2350427  30.7122037  45.9206913  10.7908286
  31.3472890  45.7239156  10.3764640  22.7742147  37.5654819  25.5085491
  21.9641923  37.8712598  25.3975334  23.2516834  38.2860401  25.6238075
  22.7245626  37.7169420  25.5092562  21.6333707  46.7800540  15.7568394
  21.1114460  46.9200831  16.4420259  22.0207727  46.0211204  15.9470512
  21.6137408  46.6886063  15.8869471  18.6224891  36.8306348   9.8263349
  18.3349687  36.4607619   9.0895296  19.3095359  37.3001204   9.5647054
  18.6813788  36.8453318   9.6778425  27.8300712  48.5195999   9.7428963
  27.5887388  47.7863860   9.3356028  28.0102045  49.0682856   9.0895296
  27.8208336  48.4918390   9.5859186  23.0600032  43.8104559  11.1549885
  22.8642815  44.4179293  10.5610188  23.2834378  43.1172503  10.6741559
  23.0634674  43.7982084  10.9965966  21.4578563  40.6959297  11.2730754
  22.1801214  40.8600455  10.8134560  20.9786555  41.4168961  11.1670093
  21.4942293  40.8257526  11.1896368  29.4172070  37.0323095  16.6527439
  28.5783171  37.0584374  16.4165702  29.4876437  37.6793831  17.2332785
  29.3040464  37.1319221  16.7036556  19.1086179  43.1017369  20.3784894
  19.6207276  43.3801622  19.7293653  18.8222522  43.8406663  20.7447707
  19.1421042  43.2519723  20.3374772  27.8641348  33.9308472  11.3855055
  28.5667701  33.7316221  10.9075013  27.5985537  33.1584415  11.6923898
  27.9287981  33.7871438  11.3600496  33.2929594  42.2391082  13.9388680
  33.2063568  42.3946508  14.7923459  32.8380074  42.8829158  13.5648085
  33.2132851  42.3566837  14.0095787  16.1953086  37.6087561  10.6748630
  16.2969222  38.4113722  11.0029605  16.9908972  37.4074897  10.3771711
  16.3280991  37.6973460  10.6783985  22.6269905  35.1943758  20.4385935
  22.4353102  35.2098892  21.2885359  23.4768501  35.3907432  20.4152590
  22.7245627  35.2258109  20.5609230  17.0116818  37.7234739  18.4169752
  16.8702309  36.8718680  18.5414260  17.2957381  37.7663400  17.5931958
  17.0324664  37.6034489  18.3137376  27.1655410  39.5601829  12.5614240
  26.9190124  39.4797580  13.3951029  27.4940533  38.7755297  12.3676767
  27.1776654  39.4328095  12.6561763  31.0603459  46.2685189  16.3501021
  30.9217818  46.9666234  16.8549764  30.2803457  46.1133845  15.9937203
  30.9246686  46.3485355  16.3727295  29.3981544  42.5681564  22.6023403
  29.3929582  41.6961380  22.6065829  30.1042538  42.7669733  22.1292859
  29.5026548  42.4685438  22.5330438  23.1252437  42.2958548  21.9737223
  23.2695813  42.8759756  21.3380333  23.4728086  42.6734845  22.6787078
  23.1979899  42.4379252  21.9836218  25.2972355  41.4948716  19.7562355
  24.5495669  41.6879731  19.3510633  25.4513880  40.6693936  19.5186476
  25.2094782  41.4013828  19.6607760  22.1980192  50.4861320  18.8398250
  22.3469756  49.9264236  18.1871654  22.9780194  50.5653321  19.2230769
  22.3354286  50.4146885  18.7995199  32.5556832  45.6263442   7.1117520
  32.1763640  44.8400580   7.1046810  31.8923077  46.1750299   6.9689165
  32.4015306  45.5908266   7.0898317  24.7233493  50.6575963  20.1182741
  24.6477164  49.9884773  20.6733529  24.6523352  51.3593751  20.6323407
  24.7014100  50.6620870  20.2759589  25.5374132  35.3899267  20.6457758
  25.9946746  36.1223241  20.7730551  25.6130460  34.9665732  21.4045014
  25.6165102  35.4356505  20.7758835  17.7807123  35.6365087  21.7347202
  17.2449312  35.0245445  22.0507969  17.8424888  36.2113223  22.3880869
  17.7102756  35.6312014  21.8782629  30.0101458  28.5689142  14.5151601
  30.1285026  29.0265605  13.7818904  29.8363633  27.7634403  14.2287819
  30.0020629  28.5182914  14.3652535  25.3803740  49.1776961  10.9506347
  26.1453631  48.9086605  10.6289011  25.2781830  48.6926972  11.6676409
  25.4785235  49.0666526  11.0086174  23.4156510  37.3801371  17.4899582
  22.6252584  37.1992831  17.8116918  23.8117132  36.6028323  17.4729877
  23.3573386  37.2388832  17.5352131  27.9022400  46.2089145   2.9306296
  28.6695385  46.2689270   2.5212148  27.4553709  45.6369587   2.4462614
  27.9495828  46.1325721   2.7984006  28.8000196  45.0143801  15.2159028
  28.1245198  44.7829033  15.7172415  28.8092572  44.4064984  14.5901133
  28.7018700  44.8902726  15.1975180  25.9294340  39.8561630  21.9723081
  25.8653481  40.7171586  21.8443218  26.0691528  39.5393623  21.1718633
  25.9409810  39.9361797  21.8351294  30.8016930  47.8708933   7.4469206
  30.8836768  48.6775920   7.1230657  31.2866673  47.8904893   8.1709980
  30.8854088  47.9929596   7.5056105  24.6113434  42.5493769  16.1139284
  24.1875683  42.7498268  15.3778302  24.4358289  41.7022617  16.2263584
  24.5224314  42.4542551  16.0212974  24.1125127  54.0644282  18.5760741
  24.6021058  53.3655072  18.3936406  23.5409359  53.7668152  19.1636799
  24.1009657  53.9170506  18.6361782  19.8995879  43.0445821  11.5467257
  20.0560498  42.9792624  12.4023249  20.2396472  43.8194373  11.3345936
  19.9729114  43.1495019  11.6421851  26.4375023  42.4203704  10.4160620
  26.9790569  41.9174085  10.8799240  26.7521582  42.3668899   9.6050105
  26.5639420  42.3383125  10.3644432  24.6061473  47.8121056   7.7000648
  24.6754293  46.9535594   7.8393648  25.3849928  48.0292937   7.3719672
  24.7314323  47.7173920   7.6717805  27.5864293  37.3140009  20.4682920
  27.8006262  36.6750923  19.9146274  26.9698192  37.7585833  20.0390782
  27.5269622  37.2850153  20.3233351  28.9968961  50.2358757  11.9137141
  28.6048752  49.9325472  11.1960007  29.1522033  51.0727847  11.7242095
  28.9622550  50.3142594  11.7793638  16.4730140  40.2280771  11.8628024
  16.8529105  40.6465316  11.1988291  15.8985505  40.8094227  12.1696867
  16.4441465  40.3758630  11.8104765  29.1608635  46.8008746  11.8543172
  28.8023290  46.9723389  12.6307204  28.6747346  47.2621952  11.2971170
  29.0367332  46.8947717  11.8868441  26.9779021  30.4239944  15.4570263
  26.1072579  30.3978666  15.4103573  27.2319363  30.2517137  14.6396109
  26.8872581  30.3950088  15.3290400  23.9497001  42.4807911   4.3943406
  24.2389526  43.2572794   4.6686980  24.0368800  41.9696643   5.0957905
  24.0051257  42.5199830   4.5385904  26.8456888  40.3289145  26.1894930
  27.3156519  40.9531262  26.5762804  26.8918768  39.6606121  26.7488144
  26.9224764  40.3223826  26.3295001  24.0028162  32.4346173  16.9143734
  23.4866650  31.7426364  17.0395313  23.4422091  33.1016950  16.8606332
  23.8434675  32.4309431  16.9249800  26.0720395  32.9739133  18.7436586
  25.6852148  32.9988164  19.5250116  25.5853333  32.4080812  18.2911103
  25.9432904  32.8934884  18.7924490  30.3213375  47.6912642  22.8010373
  30.9593095  47.1972838  22.4672829  29.6787466  47.6190042  22.2162599
  30.3207601  47.6071650  22.6652728  32.0470375  39.5401788  17.3676288
  31.6197983  39.4528136  16.6124388  31.4096428  39.6479563  17.9531132
  31.8899982  39.5434448  17.3421730  25.7377537  29.8606118  21.0346846
  26.3670655  30.3966418  20.7567916  25.9063400  29.7683477  21.8860412
  25.8555332  29.9267481  21.1195374  25.5391452  34.6477313  23.3073258
  26.3664881  34.3762462  23.3631872  25.5599298  35.4438155  23.6637076
  25.6644302  34.7257067  23.3688441  30.3767631  48.3832450  19.4415729
  31.1660009  48.0321515  19.5617811  30.5511229  49.1968839  19.1792363
  30.5187913  48.4518307  19.4203597  20.1160942  41.7941176  16.4943518
  19.2748948  41.6945050  16.7022412  20.3250950  42.5636656  16.8457839
  20.0225634  41.8933219  16.5770833  17.5936509  39.4160713  14.3228269
  17.1993206  39.4903725  13.5478379  17.0376626  39.8018659  14.8736631
  17.4539321  39.4842488  14.2895929  29.2301455  32.3942007  14.0032148
  29.4351049  32.3264315  14.8489145  28.9027879  33.2000828  13.9353325
  29.2116703  32.5027947  14.1191803  23.9277607  39.7222575  15.7441116
  23.6240744  39.1678563  16.3451523  23.2257027  39.9014785  15.2569150
  23.7793816  39.6667357  15.7610821  22.9843704  37.0323095  10.3085818
  23.2603438  36.3142007   9.8963385  23.5842373  37.6308015  10.1006924
  23.1136968  37.0143466  10.2166579  21.9895958  46.9372296  20.4513214
  21.8816313  46.9474358  21.3175272  22.1991739  47.7627076  20.2618167
  22.0046069  47.0613371  20.5517305  32.4835143  32.9473771  13.4834913
  31.8709457  33.4344173  13.8688645  32.5799318  32.2717262  14.0272564
  32.4073041  32.9192080  13.6213771  26.4854224  34.7036612   8.5832413
  26.9397971  34.8747173   9.3080257  26.9594270  34.0904723   8.1830188
  26.6222544  34.6387498   8.6306174  20.0069750  44.1884938  17.9135151
  19.4157683  44.8294436  17.8838166  20.7690773  44.6122556  17.8866451
  20.0318010  44.3460777  17.9050298  20.4030372  35.3486936  18.5803169
  20.8631854  35.4225865  19.3178293  20.4486479  36.1468190  18.2302990
  20.4780928  35.4781083  18.6375925  22.0513722  36.0153631  23.1475196
  21.6599287  35.3686978  23.5830974  22.2199585  36.6065066  23.7669451
  22.0184632  36.0067899  23.3037902  36.1260171  44.0190708  18.9112429
  36.1843295  44.4677357  19.6572406  35.4926639  44.4289521  18.4742509
  36.0411466  44.1464443  18.9564978  29.7659266  49.6394250  15.3467176
  29.5678955  50.1285064  14.6523387  29.1446977  49.8435491  15.9251309
  29.6446830  49.7410788  15.3290399  23.8267244  41.4079147   9.6877420
  24.5709289  41.7953423   9.9260370  23.9727940  40.5636572   9.8517908
  23.9577829  41.3409619   9.7471390  25.7446820  33.2029406  14.7209281
  24.8982865  33.3752213  14.5950631  25.7417952  32.3978749  15.0575110
  25.6193970  33.1090434  14.7520408  26.8145120  36.9804620  15.5871339
  26.3405074  36.4546382  16.0976650  27.1863256  36.4334093  15.0186201
  26.7995009  36.8220617  15.5786486  17.1918150  38.9776127  20.9554885
  18.0543763  38.8771836  20.8692215  16.8609933  38.3970836  20.3940457
  17.2703347  38.8767753  20.8600291  33.0781851  42.0406996  16.9978120
  32.8380074  41.2013411  17.0020546  33.5573858  42.1207162  17.7218893
  33.1134034  41.9288395  17.1052922  28.7428620  37.8741175   8.6497093
  28.2151638  37.9569919   7.9602802  29.2024328  38.6159046   8.6461738
  28.7330470  37.9961837   8.5471788  35.0787038  38.8208453  14.9507379
  34.8396808  38.7804287  14.1128163  35.2420939  39.6679605  15.0773100
  35.0677341  38.9400538  14.8460861  31.6833068  43.2058402  20.8812424
  32.4067267  42.7530929  20.7023444  31.4183030  43.4863068  20.0984752
  31.7514341  43.1809371  20.7391139  20.5519936  37.8018576  17.6165303
  19.9273006  37.8136968  17.0091256  20.2165531  38.2778751  18.2656543
  20.4105428  37.8737093  17.6221872  17.2645612  45.8619036  19.0569067
  16.7345536  45.1711475  19.1064042  17.5370705  45.8529221  18.2281776
  17.2270334  45.7586168  18.9416483  28.2965702  46.4444738   7.7806750
  29.0199901  46.9102851   7.6371323  27.8566293  46.5118348   7.0304347
  28.3381394  46.5228575   7.6491531  27.4651857  43.3042280  19.0307439
  26.8508850  42.7600331  19.3256074  27.9819142  42.7906517  18.5513255
  27.4507520  43.1478689  19.0031667  26.7048154  44.3746550  16.7651738
  26.2775763  43.7496269  16.3317173  26.6973099  44.0921472  17.5910745
  26.6407296  44.2399331  16.8231565  19.8210682  39.4111723  19.8340172
  19.9804168  38.6555048  20.2391894  19.6403575  39.9602663  20.4880909
  19.8176041  39.3805537  19.9902878  27.7630985  31.5772959  20.3890961
  27.2671546  31.7736633  19.6982528  28.5200047  31.9765627  20.2179763
  27.8017809  31.6650693  20.2611098  25.0333864  35.2515305  16.9794272
  25.0576351  34.7175417  16.2907052  25.2845338  34.7432614  17.6419862
  25.0743783  35.0976209  16.9758916  12.5441454  42.5346800  16.4137416
  12.4384903  42.4893644  15.5489500  11.7941674  42.8800580  16.6951701
  12.4177057  42.5787708  16.3274745  21.3135186  33.9786123  16.3600016
  21.3533558  34.4795330  17.0734723  20.4884851  34.0696517  16.0905939
  21.1974712  34.0667940  16.4250554  23.4964799  43.5446863  24.4620311
  22.6460430  43.6818577  24.5977955  23.6592927  42.8110641  24.9068012
  23.3948663  43.4560964  24.5475910  22.7349550  40.4946633  18.6573915
  21.9041479  40.6620451  18.4509163  22.6801067  40.1182584  19.4422800
  22.6038965  40.4636364  18.7422443  20.5433333  33.9855526  24.2930326
  21.1686036  33.4417659  24.5659758  20.0883813  33.5050444  23.7238116
  20.5681594  33.8345007  24.2491920  21.1085594  38.7702225   9.1864033
  21.2488555  39.2674689   9.8892674  21.6068126  38.0688519   9.3278246
  21.2026675  38.7404203   9.3115612  21.1385816  39.6369336   6.5156610
  21.7730895  40.2329761   6.4506071  21.2211427  39.3372793   7.3302480
  21.2442367  39.6810244   6.6259696  34.1168382  42.1684813  19.3842974
  34.7086222  42.8082064  19.4161172  34.5527376  41.4707850  19.6735041
  34.2686813  42.1603163  19.4323806  22.7164799  35.5683311   6.4902052
  23.0380640  35.0886394   5.8361314  22.9791743  36.3782957   6.2992863
  22.8030824  35.6173209   6.3657544  25.9461772  46.5902185  20.0100868
  25.4386863  47.1438032  20.4541498  25.6488418  46.6510475  19.1919642
  25.8266657  46.6808497  19.9549324  28.1123954  34.9555505  18.8525531
  28.5379025  34.5028031  18.2409057  27.4980947  34.4015576  19.1290318
  28.0852599  34.8069481  18.8030556  17.6438804  41.8337176   9.7846156
  18.1531033  42.4301684  10.1657461  18.1173076  41.5663150   9.1022575
  17.7882180  41.8822992   9.7400678  28.5569552  50.5065443   7.9404811
  27.8398862  50.3326305   7.4752048  29.2076290  50.2718015   7.4080297
  28.5471402  50.4461236   7.7934029  26.5518177  31.4270605  12.2616108
  25.9086495  31.2768251  12.8301246  26.2117584  31.1812950  11.4965212
  26.4063254  31.3682727  12.2319123  31.1417523  39.3830032  11.6846116
  30.4708713  39.9259734  11.5559182  31.8357273  39.8524887  11.4427811
  31.1446391  39.5328303  11.6301644  25.1904257  51.5226744  16.9157874
  24.9669911  50.7645573  17.2841901  24.7014100  51.5524765  16.1938314
  25.0847706  51.4148968  16.8634615  31.3045651  35.8385915  14.5936489
  31.6573261  35.4115638  15.2682288  30.4460452  35.7536759  14.7237566
  31.2295095  35.7630656  14.7131500  20.0029336  38.4693435  12.6519336
  19.2841325  38.8857567  12.9192200  20.3741698  39.0347674  12.1010974
  19.9521267  38.6142716  12.6102143  29.3028916  39.1021284  18.5421332
  29.2826844  38.9204579  19.3956111  29.3508117  39.9733302  18.5180915
  29.3063557  39.2037822  18.6644626  27.2475246  45.6908476  24.4669808
  27.2071101  45.0458153  23.8814964  28.0598565  45.6345093  24.7795220
  27.3618400  45.5867443  24.4266757  23.8382714  51.7427202  14.3694959
  23.4243112  51.0801332  13.9798801  24.5230088  51.8905060  13.8490653
  23.8781086  51.6667860  14.2351456  27.2048008  50.9017287  15.1218576
  26.8064291  51.0119557  14.3539396  26.5899228  51.1099353  15.7045135
  27.0546897  50.9490855  15.0949875  25.7775910  37.5091435   7.9892715
  25.1840749  37.8308431   7.4377282  25.8151188  36.6632530   7.7813822
  25.6950299  37.4315763   7.8775487  32.7369711  30.9604327  15.5220802
  32.2300575  30.2533467  15.4541979  33.5337144  30.6297516  15.6521879
  32.7796950  30.8077478  15.5319797  28.6533727  37.4670939  11.4194466
  28.4247420  37.4903641  10.5772824  28.9131803  36.6428406  11.5389476
  28.6579915  37.3487019  11.3119663  22.9352955  39.3205412  21.0219566
  22.4231858  38.7126595  21.3804597  22.7632451  40.0362005  21.4893542
  22.8342592  39.3368712  21.1435790  17.7818670  37.7642988  23.6721928
  17.6121260  38.4244362  23.1270134  17.3384620  37.9749549  24.3934417
  17.6918003  37.8928970  23.6983557  21.7078489  36.0047486  12.7148661
  22.1835855  36.3664565  12.0798842  21.2067089  36.6603953  12.9948804
  21.7043848  36.1541674  12.6625402  34.9389851  45.4769254   8.5061666
  35.3223456  46.2260610   8.7359763  34.1433964  45.7235073   8.2473655
  34.8783633  45.6238948   8.5019240  26.8122025  37.2429657  23.4621821
  27.3693455  37.0143467  22.8300287  26.4883090  38.0035323  23.1857034
  26.8468436  37.3213494  23.3278319  14.6820734  40.6689853  18.9310417
  14.1347454  39.9990499  19.0491286  15.4713112  40.3019701  18.9953885
  14.7172918  40.5154840  18.9579118  24.5305143  40.3297310  24.4273829
  25.2816470  40.6448987  24.7413383  24.7227719  40.1276481  23.6007750
  24.6696557  40.3464692  24.3517224  23.7505142  38.1488685   6.0822045
  24.1304107  38.1668315   5.2973160  23.0097738  38.5942674   5.9612893
  23.6973980  38.2170460   5.9485613  31.3790433  36.4570877  11.6697624
  31.3784659  36.3019533  12.5281900  31.1746613  37.3033864  11.6139010
  31.3490211  36.5591497  11.7885563  13.4407704  39.8810661  16.0856441
  13.2629465  39.4287270  16.8111356  13.1526726  40.6836822  16.2694918
  13.3720657  39.9333219  16.2199943  29.1031285  41.1368378  15.3233831
  29.5984950  40.4191373  15.2837851  28.2931061  40.8339176  15.2088318
  29.0575178  40.9866025  15.3007557  24.5489896  44.9866192   7.4730835
  23.7401219  44.6632865   7.4264145  25.0564805  44.2799414   7.4059084
  24.5039563  44.8347508   7.4561130  15.1780174  42.4138385  13.1978200
  14.3125693  42.4024075  13.0860971  15.2778989  42.2268608  14.0449339
  15.0654341  42.3844446  13.3067144  31.1683104  43.8872066  18.0110960
  31.5938175  43.3646488  17.4581385  30.8040024  44.4852903  17.4899583
  31.1769706  43.8982293  17.8519969  20.8037183  52.1836283  16.7708305
  21.1183742  52.9972672  16.7786087  21.2130597  51.7986502  17.4390464
  20.9105281  52.2464986  16.8712397  27.7561703  47.6006330  14.3412117
  28.2272881  48.3146593  14.5102102  28.0921882  47.0005080  14.8771987
  27.8756818  47.6177794  14.4444493  29.8438688  49.2107644  26.5204189
  29.9535653  48.4216204  26.8760936  30.1729584  49.1213580  25.7178527
  29.9091093  49.0813496  26.4546580  24.6731198  32.3733801  21.2970212
  24.8059104  31.5764794  21.6251187  25.0576351  32.9000204  21.8768487
  24.7487527  32.3333717  21.4313715  28.3935649  47.3924264  21.1039810
  27.8456595  46.7682148  20.8359875  28.8548678  47.5818536  20.3883889
  28.3802859  47.3283314  20.9590241  27.7463553  29.2964127  17.8951305
  26.9409517  29.1861856  18.2119143  27.6170289  29.3976583  17.0381171
  27.6083686  29.2947797  17.8159346  31.2029514  35.4609619  18.4891002
  30.6192503  35.9618825  18.0768569  31.5233808  34.9539175  17.8555325
  31.1642689  35.4601454  18.3349509  23.7424313  34.3750214   8.7649677
  24.5640007  34.5448526   8.5231372  23.2793964  34.5297475   8.0415974
  23.7955475  34.4231947   8.6221321  22.3319645  32.3692976  19.5448106
  22.8764058  32.0284103  20.1352447  22.3856581  33.2278437  19.6869390
  22.4208764  32.4448235  19.6529979  18.1450204  46.1309392  16.4186914
  18.7495061  46.0905226  15.7900734  17.9377516  46.9780544  16.4490969
  18.2039101  46.2497394  16.3303030  27.9593976  48.3975337  17.6349151
  28.7792350  48.2538303  17.8965446  27.6788053  49.0221536  18.1765589
  28.0390719  48.4685689  17.7537090  13.3801486  45.1144009  16.2885837
  13.2825764  44.3040281  16.5975893  14.1630356  45.0935803  15.9032105
  13.4817622  44.9911100  16.2772700  44.4307626  56.0540189  10.5992027
  44.4001630  56.9084825  10.7710297  45.0288975  55.7535481  11.1578171
  44.5144784  56.1356685  10.7066830  37.6307311  55.1415840  15.3544958
  36.7745206  55.3024338  15.4054074  37.6774965  54.2707904  15.3750019
  37.5106422  55.0366642  15.3651024  32.0148451  64.6778558  11.1182189
  31.2631350  64.2994096  10.8898234  32.4634462  64.7096991  10.3701000
  31.9698117  64.6264165  10.9739691  40.9401027  61.4102365  24.9605414
  41.6467795  60.9154396  25.0892348  41.1288963  61.8511447  24.2308072
  41.0728933  61.4020716  24.8714459  37.4673411  65.1003927   6.5467736
  37.1324779  65.7780849   6.1111959  37.9800281  64.7109238   5.9584608
  37.4938992  65.1428505   6.3954528  37.0077702  67.0518196  12.4878848
  37.3917081  67.6205094  11.9483623  36.9436843  66.3267706  12.0084664
  37.0551129  67.0293659  12.3372710  40.4759132  57.2007884  17.9976609
  41.0215092  57.8792970  18.0570579  40.4176008  57.0595344  17.1378191
  40.5475046  57.2799885  17.8788670  33.5933207  64.6896950  13.3844962
  33.6943570  63.8797304  13.6942090  32.9974952  64.5953896  12.7544640
  33.5205745  64.5561978  13.3371200  42.2524201  58.6292491   8.8710337
  42.1363727  59.3800177   9.3002475  43.0480087  58.3716444   9.1206424
  42.3528790  58.7027338   8.9714429  33.4333946  69.6074539  14.7859818
  34.0771402  70.0487703  15.1755976  33.7590202  68.8027965  14.6990077
  33.5765775  69.5539734  14.8305295  26.7898251  60.7117236  13.0097295
  26.5548436  59.8784889  12.9029564  26.9283892  60.9921902  12.1958496
  26.7753914  60.6300740  12.8739650  29.0888339  52.8802967  15.9081603
  28.4693370  52.2895614  15.7391618  28.9872202  53.4714402  15.2745926
  28.9826014  52.8807049  15.7886593  34.1354526  62.6186514  10.1579680
  34.4570367  63.1591721   9.5540988  34.7826623  62.0483285  10.2901969
  34.2780581  62.6145689  10.0886715  36.1856234  54.6202509  10.2414066
  36.8836399  54.7990636  10.7335530  36.5008567  54.0972848   9.6184456
  36.3351571  54.5696281  10.2216076  28.8157472  56.4255249  18.1525172
  28.6916168  57.0117694  18.7874991  29.4675756  55.9315444  18.4537447
  28.8931121  56.4394053  18.2911101  36.3744170  61.0072954  10.2293858
  36.8137805  60.3990054  10.6748630  36.2248832  60.6280327   9.4579323
  36.4165635  60.8611425  10.1813025  33.8415813  59.6016966  17.4312683
  34.4864815  59.1089409  17.1123632  34.0817590  59.7441752  18.2578761
  33.9726398  59.5494408  17.5062216  36.3801904  62.4471871  17.0819576
  36.6625147  61.6523277  16.8606332  37.1088064  62.9252459  17.1024637
  36.5291468  62.4006468  17.0522591  34.3583098  49.9894905  14.3235341
  34.0286428  50.4406049  13.6539040  33.6828100  49.9111069  14.8708347
  34.2093534  50.0446041  14.3058564  39.9753506  59.3600135   7.1824627
  39.8904801  60.2161102   7.3274196  40.4637889  59.0844459   7.8506786
  40.0342403  59.4457456   7.3026708  41.5659506  45.9780428  12.5684952
  41.2512947  46.6683907  13.0005374  41.0486447  45.9225211  11.8670452
  41.4423976  46.0715317  12.5281901  40.9071939  55.9784929   8.6822362
  40.3783411  56.1944563   9.3419668  41.4296959  56.6721068   8.6023331
  40.9060392  56.1128066   8.7677961  46.3619992  61.5531234  14.0555407
  45.5317695  61.7641877  14.2188823  46.3129245  60.7268288  13.7797690
  46.2326728  61.4620840  14.0392772  32.7971547  59.8748146   7.4829830
  32.2128762  60.3798177   7.8895694  32.3941642  59.6490533   6.7426422
  32.6510851  59.9156394   7.4334855  28.3515576  65.5902907  14.2853502
  27.8683154  66.3153397  14.2613085  29.1638894  65.8879037  14.3963659
  28.4006324  65.7405261  14.2980781  34.4229730  64.3835088  16.8903316
  33.9056671  64.0242503  16.2864624  35.1204121  63.8597262  16.9009382
  34.4495311  64.2532776  16.8033575  38.0793322  64.8329902  22.8519489
  38.1676668  64.6456042  23.6997699  38.5083034  64.1867331  22.4524336
  38.1555424  64.7092910  22.9191241  35.6463782  64.1161062  21.8337151
  35.0834616  63.7033672  22.3576812  36.4084805  64.0413967  22.2530295
  35.6758230  64.0438462  21.9730152  37.2548762  56.1213798   5.9598751
  37.4944765  56.3291782   5.1474094  37.5764603  55.3171307   6.0687695
  37.3385919  56.0327899   5.8559304  32.5639052  48.0507194   9.8058289
  33.3185020  48.4185511   9.5675339  32.3866586  48.4246748  10.5737468
  32.6493530  48.1605382   9.8843177  31.2059773  66.1059083  14.4373781
  31.9080352  65.5911072  14.4946538  31.1257256  66.4333234  15.2420657
  31.2983534  66.0773309  14.5646574  45.8573951  54.2001634  17.8505828
  45.0202372  54.2703821  18.0853422  45.8262182  54.2026129  16.9780130
  45.7292233  54.2111861  17.7565376  32.2538680  56.3434670  23.5654197
  32.4259183  56.2340565  24.4139478  32.7908037  56.9889075  23.3285389
  32.3583684  56.4226672  23.6559293  30.9196116  50.4577513   6.5036402
  30.7371690  50.6749394   5.6777394  31.7821730  50.5716525   6.5595016
  31.0200706  50.5067411   6.3890889  30.5310548  62.2965435  13.9459389
  31.3699448  62.5288368  13.9933151  30.5622318  61.4269746  13.8766425
  30.6592266  62.2022381  13.9424034  31.1563251  62.7166310  18.2472695
  31.6961476  62.5737441  18.9176067  30.4733198  63.1163061  18.6156721
  31.1355405  62.7545981  18.4007117  36.5995836  47.4603923   9.5385425
  37.3281996  47.2819878   9.0923582  36.6890729  48.3022003   9.7492604
  36.7202498  47.5587802   9.5038943  40.5804136  58.3957311  13.4417719
  41.3361651  58.8288825  13.4806628  40.6866461  57.7462081  14.0152355
  40.7074307  58.3634795  13.5315745  43.6184307  62.2230588  14.1920122
  43.1819539  62.2267330  14.9479094  43.2847223  62.9036087  13.7599700
  43.5046927  62.3243044  14.2400955  38.1913381  64.2638921  25.5163273
  38.9753798  64.3769769  25.8819015  37.9909976  63.4380058  25.7121958
  38.2779406  64.1585640  25.5997659  26.5600397  58.9366601  18.4007117
  26.2938812  58.1205718  18.5598107  26.5738961  58.9819757  17.5302632
  26.5225119  58.8223506  18.2960599  43.5381790  49.2644416  16.4349550
  44.1807699  49.3342520  17.0211466  43.7904811  48.5973639  15.9329092
  43.6703923  49.1770765  16.4476830  30.4658144  53.7351685   5.0158875
  29.7516321  53.4489865   5.4281307  30.9502112  54.0748311   5.6565262
  30.4317507  53.7433335   5.1714510  31.3099003  52.4744979  21.0474124
  30.6170800  52.0041959  21.2934856  31.9259330  52.2483284  21.6215831
  31.2983533  52.3712111  21.1683277  38.3483774  66.1749023  19.1629728
  37.5499020  65.9348523  19.4203597  38.7969786  66.2263416  19.9096776
  38.2958386  66.1471414  19.3114653  46.7528654  58.9411508  13.0839760
  47.4145088  58.3802176  12.9835668  46.1120066  58.4463539  13.4092451
  46.7557521  58.7847917  13.1172100  37.6405461  62.2381639   5.3920683
  38.0556610  61.9066663   4.7005179  36.8097391  62.0050542   5.2640819
  37.5793470  62.1552895   5.2711530  26.9693810  59.7225380  15.6818861
  26.7869383  59.6972266  14.8291153  27.7043479  60.1924318  15.7207770
  27.0507874  59.7886743  15.5616779  43.0393484  59.9576890  12.8251748
  43.2749074  60.1022089  11.9978599  43.1883048  60.7219298  13.2183262
  43.0959288  60.0915945  12.7615352  30.0339562  56.4410383  22.1900969
  30.7579534  56.4263414  22.6765864  30.1355698  57.1505738  21.6922938
  30.1557771  56.5435086  22.1879756  44.8683941  58.7978556  10.6621352
  45.1992158  59.3306196  10.0561447  45.4417029  58.8517444  11.3183303
  45.0017620  58.8848125  10.6699134  37.4084511  59.9209468  27.0549916
  36.6157492  60.2352980  27.2402536  37.5233438  60.1360936  26.2170701
  37.3079922  59.9993305  26.9588251  40.0815830  56.6443459  11.3444932
  40.1762685  57.3832753  11.7984558  39.4574674  56.2160934  11.7779497
  40.0024860  56.6904780  11.4753080  38.3368304  59.8229672  21.9935213
  38.9107166  59.1856916  22.1483777  38.2583108  59.8233754  21.1244871
  38.4101539  59.7294783  21.8881624  26.9364721  56.6018881  15.8317927
  27.5138223  56.4655332  16.4710173  26.2378782  56.1454665  16.0863512
  26.9185742  56.5141147  15.9640217  40.3338852  58.4892199   4.5781884
  40.2519014  58.5594386   5.4436871  40.9718572  59.0521943   4.3865625
  40.4158689  58.5831170   4.6771834  33.6932023  58.2552937  14.0456411
  33.4351267  57.4224672  14.0187710  33.7480506  58.4810550  13.2048911
  33.6631801  58.1650708  13.9176547  38.7733073  50.3581387  14.1460503
  38.0689400  49.8690573  14.3044422  38.8218047  50.3703862  13.2748948
  38.6763124  50.2871035  14.0399843  32.6666735  55.8090699  14.5321305
  32.0916326  55.9682868  15.1685266  32.2902411  55.1726108  14.0689756
  32.5269547  55.7388512  14.5575864  36.3340024  54.2814048  19.3913684
  35.9454456  53.8568266  18.7365875  35.6694722  54.5296198  19.8990710
  36.1786951  54.2552770  19.3701552  45.9763293  54.0389053  12.1661514
  45.7199857  53.2268995  11.9759397  46.8192607  54.0466620  11.9391701
  46.0629318  53.9201051  12.1046331  22.4123554  55.4530774  12.5465746
  22.4983806  55.0762642  13.3279276  23.0399351  55.0791220  12.0685704
  22.5180105  55.3416256  12.5911223  40.1566385  47.9788677  16.9037668
  40.5376897  47.2966848  17.2905542  39.3529669  47.6898279  16.7213332
  40.0942847  47.8355726  16.9341724  37.4378962  58.5112653   7.5890491
  38.2519601  58.8027546   7.4773262  37.3738103  57.8572515   7.0148784
  37.5481701  58.4577848   7.4879328  43.6588452  61.1938649  22.0020066
  43.4227089  60.3626714  21.8832127  44.3031681  61.1424256  22.5874911
  43.7183123  61.0636337  22.0705960  33.3086870  61.9834171  12.7162803
  33.9460817  61.7445918  13.2614596  33.7341942  62.1871329  11.9815963
  33.4663036  61.9785181  12.6879960  27.9999512  64.2222507  16.5997107
  28.0403658  64.4937358  15.7716886  28.5594036  64.7464415  17.0154894
  28.0882858  64.3398262  16.5388995  33.9489685  57.2036460   7.0537692
  34.3334838  56.9844167   7.8054237  33.7001305  58.0299406   7.1838769
  33.9691758  57.2934607   7.1838769  44.6824873  60.9783098  18.0648361
  44.3770690  61.7111155  18.4261676  43.9631088  60.5721027  17.7841147
  44.5312215  61.0264831  18.0761498  35.6908342  62.4606593  14.3956589
  35.7647350  62.2981765  15.2498439  36.5077848  62.6496783  14.1517071
  35.8224701  62.4643335  14.4854615  50.3826665  57.6176099  17.3916705
  50.3151165  57.6372058  16.5219292  50.3682327  58.4606426  17.6172376
  50.3705421  57.7449833  17.2969182  29.4514099  62.8064456  11.4251033
  28.6252216  63.0526193  11.2985311  29.5126090  62.7276537  12.2913091
  29.3388266  62.8309405  11.5339977  31.6690122  48.8733397  12.3846473
  30.8012548  48.9455996  12.4504082  31.9565327  49.6755476  12.5734448
  31.5829871  49.0027544  12.4221239  40.7923011  49.0211256  20.7157795
  41.5376603  48.8321067  20.3021220  40.3760316  49.5469494  20.1571651
  40.8407985  49.0713402  20.5722368  34.2312928  65.4241336   9.1270062
  34.5211226  65.0330318   8.4029289  34.9616409  65.6058041   9.5675338
  34.3819812  65.3935150   9.0852869  48.1685282  56.3920485  15.6663300
  48.7193204  55.7588554  15.9060392  48.1529397  56.9235878  16.3578804
  48.2470478  56.3769433  15.8042158  34.8207673  60.2259082  20.2123193
  34.3219367  60.9374850  20.2908081  35.6307897  60.5459749  20.1741355
  34.8663780  60.3785931  20.2179761  32.1718843  67.4008719  12.1930212
  31.9519139  67.1106073  12.9856879  31.9513365  66.7423674  11.6648125
  32.1066437  67.2608427  12.2319121  31.0835791  59.4882035  14.4585914
  30.7949039  58.8619506  14.9931641  31.9519139  59.4302323  14.5250594
  31.1696042  59.3869579  14.5476868  41.8713688  54.6316819  14.7767896
  41.5278454  53.9107154  15.1275145  41.9706731  54.4230670  13.9346254
  41.8355731  54.4941022  14.7039576  34.3386799  68.7738109  10.9760905
  34.9910857  68.2414551  11.2051931  33.6412408  68.4206761  11.3628779
  34.3317517  68.6427632  11.0673072  31.2868064  61.1277286  10.3828279
  32.0414032  61.5090325  10.5963741  30.6938677  61.5788430  10.8374975
  31.3104777  61.2506114  10.4811157  42.3326717  61.0942523  10.3191884
  42.8984750  61.7535732  10.2350427  41.6854621  61.4392221  10.7908286
  42.3205474  61.2424464  10.3764640  32.6066290  62.2985848  15.7568394
  32.0847044  62.4386139  16.4420259  32.9940311  61.5396512  15.9470512
  32.5869991  62.2071371  15.8869471  29.5957475  52.3491656   9.8263349
  29.3082270  51.9792927   9.0895296  30.2827943  52.8186512   9.5647054
  29.6546372  52.3638626   9.6778425  38.8033295  64.0381307   9.7428963
  38.5619971  63.3049167   9.3356028  38.9834628  64.5868164   9.0895296
  38.7940919  64.0103698   9.5859186  34.0332616  59.3289867  11.1549885
  33.8375399  59.9364601  10.5610188  34.2566962  58.6357811  10.6741559
  34.0367257  59.3167392  10.9965966  32.4311146  56.2144604  11.2730754
  33.1533798  56.3785763  10.8134560  31.9519139  56.9354269  11.1670093
  32.4674877  56.3442834  11.1896368  40.3904654  52.5508403  16.6527439
  39.5515754  52.5769682  16.4165702  40.4609021  53.1979139  17.2332785
  40.2773047  52.6504529  16.7036556  38.8373932  49.4493780  11.3855055
  39.5400285  49.2501529  10.9075013  38.5718121  48.6769723  11.6923898
  38.9020564  49.3056746  11.3600496  44.2662178  57.7576390  13.9388680
  44.1796152  57.9131816  14.7923459  43.8112657  58.4014466  13.5648085
  44.1865434  57.8752145  14.0095787  27.1685669  53.1272869  10.6748630
  27.2701806  53.9299030  11.0029605  27.9641556  52.9260205  10.3771711
  27.3013575  53.2158768  10.6783985  33.6002488  50.7129065  20.4385935
  33.4085685  50.7284200  21.2885359  34.4501084  50.9092740  20.4152590
  33.6978210  50.7443417  20.5609230  27.9849401  53.2420047  18.4169752
  27.8434893  52.3903988  18.5414260  28.2689965  53.2848708  17.5931958
  28.0057247  53.1219797  18.3137376  38.1387994  55.0787137  12.5614240
  37.8922708  54.9982888  13.3951029  38.4673117  54.2940605  12.3676767
  38.1509237  54.9513402  12.6561763  42.0336042  61.7870496  16.3501021
  41.8950402  62.4851542  16.8549764  41.2536040  61.6319153  15.9937203
  41.8979269  61.8670663  16.3727295  40.3714128  58.0866872  22.6023403
  40.3662166  57.2146688  22.6065829  41.0775121  58.2855041  22.1292859
  40.4759132  57.9870746  22.5330438  34.0985021  57.8143856  21.9737223
  34.2428397  58.3945064  21.3380333  34.4460669  58.1920152  22.6787078
  34.1712482  57.9564560  21.9836218  36.2704938  57.0134024  19.7562355
  35.5228252  57.2065038  19.3510633  36.4246463  56.1879244  19.5186476
  36.1827366  56.9199136  19.6607760  33.1712776  66.0046628  18.8398250
  33.3202340  65.4449543  18.1871654  33.9512778  66.0838629  19.2230769
  33.3086869  65.9332193  18.7995199  43.5289415  61.1448750   7.1117520
  43.1496224  60.3585888   7.1046810  42.8655661  61.6935607   6.9689165
  43.3747890  61.1093574   7.0898317  35.6966076  66.1761270  20.1182741
  35.6209748  65.5070081  20.6733529  35.6255936  66.8779059  20.6323407
  35.6746683  66.1806178  20.2759589  36.5106715  50.9084575  20.6457758
  36.9679329  51.6408549  20.7730551  36.5863044  50.4851040  21.4045014
  36.5897685  50.9541813  20.7758835  28.7539706  51.1550395  21.7347202
  28.2181896  50.5430753  22.0507969  28.8157471  51.7298531  22.3880869
  28.6835339  51.1497322  21.8782629  40.9834041  44.0874450  14.5151601
  41.1017609  44.5450913  13.7818904  40.8096217  43.2819711  14.2287819
  40.9753212  44.0368222  14.3652535  36.3536323  64.6962269  10.9506347
  37.1186215  64.4271913  10.6289011  36.2514413  64.2112280  11.6676409
  36.4517819  64.5851834  11.0086174  34.3889093  52.8986679  17.4899582
  33.5985168  52.7178139  17.8116918  34.7849716  52.1213631  17.4729877
  34.3305969  52.7574140  17.5352131  38.8754984  61.7274453   2.9306296
  39.6427969  61.7874578   2.5212148  38.4286293  61.1554894   2.4462614
  38.9228411  61.6511029   2.7984006  39.7732779  60.5329109  15.2159028
  39.0977781  60.3014341  15.7172415  39.7825156  59.9250292  14.5901133
  39.6751284  60.4088034  15.1975180  36.9026923  55.3746938  21.9723081
  36.8386065  56.2356894  21.8443218  37.0424111  55.0578931  21.1718633
  36.9142393  55.4547105  21.8351294  41.7749514  63.3894241   7.4469206
  41.8569351  64.1961227   7.1230657  42.2599256  63.4090201   8.1709980
  41.8586672  63.5114904   7.5056105  35.5846017  58.0679077  16.1139284
  35.1608266  58.2683576  15.3778302  35.4090873  57.2207925  16.2263584
  35.4956898  57.9727859  16.0212974  35.0857711  69.5829590  18.5760741
  35.5753641  68.8840379  18.3936406  34.5141943  69.2853460  19.1636799
  35.0742241  69.4355814  18.6361782  30.8728462  58.5631129  11.5467257
  31.0293081  58.4977931  12.4023249  31.2129055  59.3379681  11.3345936
  30.9461697  58.6680327  11.6421851  37.4107607  57.9389012  10.4160620
  37.9523152  57.4359393  10.8799240  37.7254166  57.8854207   9.6050105
  37.5372004  57.8568433  10.3644432  41.2824714  62.1491660  27.5287532
  42.0959580  61.8776808  27.6892665  41.1219681  61.8499200  26.7247728
  41.3794663  62.0646586  27.4332938  35.5794057  63.3306364   7.7000648
  35.6486877  62.4720902   7.8393648  36.3582512  63.5478245   7.3719672
  35.7046907  63.2359228   7.6717805  38.5596876  52.8325317  20.4682920
  38.7738846  52.1936231  19.9146274  37.9430775  53.2771141  20.0390782
  38.5002206  52.8035460  20.3233351  39.9701544  65.7544065  11.9137141
  39.5781336  65.4510780  11.1960007  40.1254616  66.5913155  11.7242095
  39.9355134  65.8327902  11.7793638  27.4462724  55.7466079  11.8628024
  27.8261689  56.1650624  11.1988291  26.8718089  56.3279535  12.1696867
  27.4174049  55.8943938  11.8104765  40.7235964  54.4414382  21.4066227
  39.9112646  54.1340272  21.4879400  41.1825899  53.9613382  21.9708940
  40.6716349  54.3250874  21.5020822  40.1341219  62.3194054  11.8543172
  39.7755874  62.4908697  12.6307204  39.6479930  62.7807260  11.2971170
  40.0099916  62.4133025  11.8868441  37.9511605  45.9425252  15.4570263
  37.0805163  45.9163973  15.4103573  38.2051946  45.7702445  14.6396109
  37.8605165  45.9135396  15.3290400  34.9229584  57.9993219   4.3943406
  35.2122109  58.7758102   4.6686980  35.0101383  57.4881951   5.0957905
  34.9783841  58.0385138   4.5385904  37.8189472  55.8474453  26.1894930
  38.2889103  56.4716570  26.5762804  37.8651352  55.1791429  26.7488144
  37.8957348  55.8409134  26.3295001  34.9760745  47.9531481  16.9143734
  34.4599234  47.2611672  17.0395313  34.4154674  48.6202258  16.8606332
  34.8167259  47.9494738  16.9249800  37.0452979  48.4924441  18.7436586
  36.6584732  48.5173472  19.5250116  36.5585916  47.9266120  18.2911103
  36.9165488  48.4120192  18.7924490  41.2945958  63.2097950  22.8010373
  41.9325679  62.7158145  22.4672829  40.6520050  63.1375350  22.2162599
  41.2940185  63.1256958  22.6652728  43.0202958  55.0587096  17.3676288
  42.5930566  54.9713444  16.6124388  42.3829011  55.1664871  17.9531132
  42.8632566  55.0619756  17.3421730  36.7110121  45.3791426  21.0346846
  37.3403239  45.9151726  20.7567916  36.8795983  45.2868785  21.8860412
  36.8287915  45.4452789  21.1195374  41.3500215  63.9017758  19.4415729
  42.1392593  63.5506823  19.5617811  41.5243813  64.7154147  19.1792363
  41.4920497  63.9703615  19.4203597  31.0893525  57.3126484  16.4943518
  30.2481532  57.2130358  16.7022412  31.2983533  58.0821964  16.8457839
  30.9958218  57.4118527  16.5770833  28.5669092  54.9346021  14.3228269
  28.1725790  55.0089033  13.5478379  28.0109209  55.3203967  14.8736631
  28.4271905  55.0027795  14.2895929  40.2034039  47.9127315  14.0032148
  40.4083632  47.8449623  14.8489145  39.8760463  48.7186136  13.9353325
  40.1849287  48.0213255  14.1191803  34.9010190  55.2407883  15.7441116
  34.5973328  54.6863871  16.3451523  34.1989611  55.4200093  15.2569150
  34.7526400  55.1852665  15.7610821  33.9576287  52.5508403  10.3085818
  34.2336022  51.8327315   9.8963385  34.5574957  53.1493323  10.1006924
  34.0869552  52.5328774  10.2166579  32.9628541  62.4557604  20.4513214
  32.8548896  62.4659666  21.3175272  33.1724323  63.2812384  20.2618167
  32.9778652  62.5798679  20.5517305  43.4567727  48.4659079  13.4834913
  42.8442040  48.9529481  13.8688645  43.5531902  47.7902570  14.0272564
  43.3805624  48.4377388  13.6213771  37.4586808  50.2221920   8.5832413
  37.9130554  50.3932481   9.3080257  37.9326854  49.6090031   8.1830188
  37.5955128  50.1572805   8.6306174  30.9802333  59.7070246  17.9135151
  30.3890266  60.3479744  17.8838166  31.7423357  60.1307863  17.8866451
  31.0050594  59.8646085  17.9050298  31.3762956  50.8672244  18.5803169
  31.8364438  50.9411173  19.3178293  31.4219063  51.6653498  18.2302990
  31.4513511  50.9966391  18.6375925  33.0246306  51.5338939  23.1475196
  32.6331871  50.8872286  23.5830974  33.1932168  52.1250374  23.7669451
  32.9917216  51.5253207  23.3037902  47.0992755  59.5376016  18.9112429
  47.1575878  59.9862665  19.6572406  46.4659222  59.9474829  18.4742509
  47.0144050  59.6649751  18.9564978  40.7391849  65.1579558  15.3467176
  40.5411538  65.6470372  14.6523387  40.1179560  65.3620799  15.9251309
  40.6179414  65.2596096  15.3290399  34.7999828  56.9264455   9.6877420
  35.5441873  57.3138731   9.9260370  34.9460524  56.0821880   9.8517908
  34.9310413  56.8594927   9.7471390  36.7179403  48.7214713  14.7209281
  35.8715448  48.8937521  14.5950631  36.7150536  47.9164057  15.0575110
  36.5926553  48.6275742  14.7520408  37.7877704  52.4989928  15.5871339
  37.3137658  51.9731690  16.0976650  38.1595839  51.9519401  15.0186201
  37.7727593  52.3405924  15.5786486  28.1650734  54.4961435  20.9554885
  29.0276347  54.3957144  20.8692215  27.8342517  53.9156144  20.3940457
  28.2435930  54.3953061  20.8600291  44.0514434  57.5592304  16.9978120
  43.8112657  56.7198719  17.0020546  44.5306441  57.6392470  17.7218893
  44.0866618  57.4473703  17.1052922  39.7161203  53.3926482   8.6497093
  39.1884222  53.4755226   7.9602802  40.1756911  54.1344354   8.6461738
  39.7063054  53.5147145   8.5471788  46.0519621  54.3393761  14.9507379
  45.8129391  54.2989595  14.1128163  46.2153523  55.1864913  15.0773100
  46.0409925  54.4585846  14.8460861  42.6565651  58.7243710  20.8812424
  43.3799850  58.2716236  20.7023444  42.3915614  59.0048376  20.0984752
  42.7246925  58.6994679  20.7391139  31.5252520  53.3203884  17.6165303
  30.9005590  53.3322276  17.0091256  31.1898115  53.7964059  18.2656543
  31.3838012  53.3922401  17.6221872  31.7094268  51.6629002   3.6737988
  31.3607073  52.3148727   4.1369538  31.2290714  51.6486115   2.9461859
  31.5864512  51.7572056   3.6349079  28.2378195  61.3804344  19.0569067
  27.7078120  60.6896783  19.1064042  28.5103289  61.3714529  18.2281776
  28.2002918  61.2771476  18.9416483  39.2698286  61.9630046   7.7806750
  39.9932485  62.4288159   7.6371323  38.8298877  62.0303656   7.0304347
  39.3113978  62.0413883   7.6491531  38.4384441  58.8227588  19.0307439
  37.8241434  58.2785639  19.3256074  38.9551726  58.3091825  18.5513255
  38.4240103  58.6663997  19.0031667  37.6780738  59.8931858  16.7651738
  37.2508346  59.2681577  16.3317173  37.6705682  59.6106780  17.5910745
  37.6139879  59.7584639  16.8231565  30.7943265  54.9297031  19.8340172
  30.9536752  54.1740356  20.2391894  30.6136159  55.4787971  20.4880909
  30.7908624  54.8990845  19.9902878  38.7363568  47.0958267  20.3890961
  38.2404129  47.2921941  19.6982528  39.4932630  47.4950935  20.2179763
  38.7750393  47.1836001  20.2611098  36.0066448  50.7700613  16.9794272
  36.0308935  50.2360725  16.2907052  36.2577921  50.2617922  17.6419862
  36.0476366  50.6161517  16.9758916  23.5174038  58.0532108  16.4137416
  23.4117487  58.0078952  15.5489500  22.7674258  58.3985888  16.6951701
  23.3909640  58.0973016  16.3274745  32.2867770  49.4971431  16.3600016
  32.3266142  49.9980638  17.0734723  31.4617435  49.5881825  16.0905939
  32.1707296  49.5853247  16.4250554  34.4697383  59.0632171  24.4620311
  33.6193013  59.2003885  24.5977955  34.6325511  58.3295949  24.9068012
  34.3681246  58.9746272  24.5475910  33.7082133  56.0131941  18.6573915
  32.8774063  56.1805759  18.4509163  33.6533651  55.6367892  19.4422800
  33.5771548  55.9821672  18.7422443  31.5165917  49.5040834  24.2930326
  32.1418620  48.9602967  24.5659758  31.0616397  49.0235751  23.7238116
  31.5414177  49.3530315  24.2491920  32.0818177  54.2887532   9.1864033
  32.2221138  54.7859997   9.8892674  32.5800710  53.5873827   9.3278246
  32.1759258  54.2589511   9.3115612  32.1118400  55.1554644   6.5156610
  32.7463479  55.7515069   6.4506071  32.1944010  54.8558101   7.3302480
  32.2174951  55.1995552   6.6259696  45.0900965  57.6870121  19.3842974
  45.6818806  58.3267372  19.4161172  45.5259960  56.9893158  19.6735041
  45.2419397  57.6788471  19.4323806  33.6897382  51.0868619   6.4902052
  34.0113223  50.6071701   5.8361314  33.9524326  51.8968265   6.2992863
  33.7763408  51.1358517   6.3657544  36.9194355  62.1087493  20.0100868
  36.4119446  62.6623340  20.4541498  36.6221001  62.1695783  19.1919642
  36.7999240  62.1993804  19.9549324  39.0856537  50.4740813  18.8525531
  39.5111609  50.0213339  18.2409057  38.4713531  49.9200884  19.1290318
  39.0585183  50.3254789  18.8030556  28.6171387  57.3522484   9.7846156
  29.1263617  57.9486992  10.1657461  29.0905660  57.0848458   9.1022575
  28.7614763  57.4008300   9.7400678  39.5302136  66.0250751   7.9404811
  38.8131445  65.8511613   7.4752048  40.1808873  65.7903323   7.4080297
  39.5203986  65.9646543   7.7934029  37.5250760  46.9455913  12.2616108
  36.8819078  46.7953559  12.8301246  37.1850167  46.6998258  11.4965212
  37.3795838  46.8868035  12.2319123  42.1150107  54.9015339  11.6846116
  41.4441297  55.4445042  11.5559182  42.8089857  55.3710195  11.4427811
  42.1178974  55.0513611  11.6301644  36.1636840  67.0412052  16.9157874
  35.9402495  66.2830881  17.2841901  35.6746684  67.0710073  16.1938314
  36.0580289  66.9334276  16.8634615  42.2778234  51.3571223  14.5936489
  42.6305844  50.9300946  15.2682288  41.4193036  51.2722067  14.7237566
  42.2027679  51.2815964  14.7131500  30.9761919  53.9878743  12.6519336
  30.2573908  54.4042875  12.9192200  31.3474281  54.5532982  12.1010974
  30.9253851  54.1328024  12.6102143  40.2761500  54.6206592  18.5421332
  40.2559427  54.4389887  19.3956111  40.3240701  55.4918610  18.5180915
  40.2796141  54.7223130  18.6644626  38.2207830  61.2093784  24.4669808
  38.1803685  60.5643461  23.8814964  39.0331148  61.1530401  24.7795220
  38.3350983  61.1052751  24.4266757  34.8115297  67.2612510  14.3694959
  34.3975696  66.5986640  13.9798801  35.4962672  67.4090368  13.8490653
  34.8513669  67.1853168  14.2351456  38.1780592  66.4202595  15.1218576
  37.7796875  66.5304865  14.3539396  37.5631811  66.6284661  15.7045135
  38.0279481  66.4676163  15.0949875  36.7508494  53.0276743   7.9892715
  36.1573333  53.3493739   7.4377282  36.7883771  52.1817838   7.7813822
  36.6682883  52.9501071   7.8775487  43.7102294  46.4789635  15.5220802
  43.2033159  45.7718775  15.4541979  44.5069728  46.1482824  15.6521879
  43.7529533  46.3262786  15.5319797  39.6266310  52.9856247  11.4194466
  39.3980003  53.0088949  10.5772824  39.8864386  52.1613714  11.5389476
  39.6312498  52.8672327  11.3119663  33.9085539  54.8390720  21.0219566
  33.3964442  54.2311903  21.3804597  33.7365035  55.5547313  21.4893542
  33.8075176  54.8554020  21.1435790  28.7551253  53.2828296  23.6721928
  28.5853844  53.9429670  23.1270134  28.3117203  53.4934857  24.3934417
  28.6650587  53.4114278  23.6983557  32.6811073  51.5232794  12.7148661
  33.1568439  51.8849873  12.0798842  32.1799672  52.1789261  12.9948804
  32.6776432  51.6726982  12.6625402  45.9122434  60.9954562   8.5061666
  46.2956040  61.7445918   8.7359763  45.1166548  61.2420381   8.2473655
  45.8516216  61.1424255   8.5019240  25.6553318  56.1875161  18.9310417
  25.1080037  55.5175807  19.0491286  26.4445696  55.8205009  18.9953885
  25.6905501  56.0340148  18.9579118  35.5037726  55.8482618  24.4273829
  36.2549053  56.1634295  24.7413383  35.6960303  55.6461789  23.6007750
  35.6429140  55.8650000  24.3517224  34.7237726  53.6673993   6.0822045
  35.1036691  53.6853622   5.2973160  33.9830322  54.1127982   5.9612893
  34.6706564  53.7355768   5.9485613  42.3523016  51.9756185  11.6697624
  42.3517243  51.8204841  12.5281900  42.1479196  52.8219172  11.6139010
  42.3222794  52.0776805  11.7885563  24.4140287  55.3995969  16.0856441
  24.2362048  54.9472578  16.8111356  24.1259309  56.2022130  16.2694918
  24.3453240  55.4518527  16.2199943  40.0763868  56.6553686  15.3233831
  40.5717534  55.9376681  15.2837851  39.2663644  56.3524484  15.2088318
  40.0307762  56.5051333  15.3007557  35.5222480  60.5051500   7.4730835
  34.7133803  60.1818173   7.4264145  36.0297389  59.7984722   7.4059084
  35.4772147  60.3532816   7.4561130  26.1512757  57.9323693  13.1978200
  25.2858277  57.9209383  13.0860971  26.2511573  57.7453916  14.0449339
  26.0386924  57.9029754  13.3067144  42.1415687  59.4057374  18.0110960
  42.5670759  58.8831796  17.4581385  41.7772607  60.0038211  17.4899583
  42.1502290  59.4167601  17.8519969  31.7769767  67.7021591  16.7708305
  32.0916326  68.5157980  16.7786087  32.1863180  67.3171810  17.4390464
  31.8837865  67.7650294  16.8712397  38.7294287  63.1191638  14.3412117
  39.2005465  63.8331901  14.5102102  39.0654465  62.5190388  14.8771987
  38.8489402  63.1363102  14.4444493  40.8171271  64.7292951  26.5204189
  40.9268237  63.9401512  26.8760936  41.1462168  64.6398888  25.7178527
  40.8823677  64.5998804  26.4546580  35.6463782  47.8919109  21.2970212
  35.7791687  47.0950102  21.6251187  36.0308934  48.4185512  21.8768487
  35.7220110  47.8519025  21.4313715  39.3668233  62.9109572  21.1039810
  38.8189179  62.2867456  20.8359875  39.8281262  63.1003844  20.3883889
  39.3535442  62.8468622  20.9590241  38.7196137  44.8149435  17.8951305
  37.9142101  44.7047164  18.2119143  38.5902872  44.9161890  17.0381171
  38.5816270  44.8133105  17.8159346  42.1762097  50.9794927  18.4891002
  41.5925086  51.4804133  18.0768569  42.4966391  50.4724483  17.8555325
  42.1375273  50.9786762  18.3349509  34.7156896  49.8935522   8.7649677
  35.5372591  50.0633834   8.5231372  34.2526547  50.0482782   8.0415974
  34.7688059  49.9417254   8.6221321  33.3052228  47.8878284  19.5448106
  33.8496641  47.5469411  20.1352447  33.3589164  48.7463745  19.6869390
  33.3941348  47.9633543  19.6529979  29.1182787  61.6494700  16.4186914
  29.7227645  61.6090534  15.7900734  28.9110100  62.4965852  16.4490969
  29.1771684  61.7682702  16.3303030  38.9326559  63.9160645  17.6349151
  39.7524933  63.7723611  17.8965446  38.6520637  64.5406844  18.1765589
  39.0123303  63.9870997  17.7537090  24.3534069  60.6329317  16.2885837
  24.2558347  59.8225589  16.5975893  25.1362939  60.6121111  15.9032105
  24.4550206  60.5096407  16.2772700  48.6039895  70.6601148  15.3544958
  47.7477790  70.8209646  15.4054074  48.6507548  69.7893212  15.3750019
  48.4839006  70.5551950  15.3651024  51.9133611  76.9287673  24.9605414
  52.6200378  76.4339704  25.0892348  52.1021546  77.3696755  24.2308072
  52.0461517  76.9206024  24.8714459  51.4491716  72.7193192  17.9976609
  51.9947676  73.3978278  18.0570579  51.3908592  72.5780652  17.1378191
  51.5207630  72.7985193  17.8788670  37.7630835  76.2302544  13.0097295
  37.5281019  75.3970197  12.9029564  37.9016475  76.5107210  12.1958496
  37.7486497  76.1486048  12.8739650  40.0620922  68.3988275  15.9081603
  39.4425954  67.8080922  15.7391618  39.9604786  68.9899710  15.2745926
  39.9558598  68.3992357  15.7886593  39.7890055  71.9440557  18.1525172
  39.6648752  72.5303002  18.7874991  40.4408340  71.4500752  18.4537447
  39.8663705  71.9579361  18.2911101  44.8148396  75.1202273  17.4312683
  45.4597399  74.6274717  17.1123632  45.0550173  75.2627060  18.2578761
  44.9458981  75.0679716  17.5062216  47.3534488  77.9657179  17.0819576
  47.6357730  77.1708585  16.8606332  48.0820648  78.4437767  17.1024637
  47.5024051  77.9191776  17.0522591  45.3315681  65.5080213  14.3235341
  45.0019011  65.9591357  13.6539040  44.6560683  65.4296377  14.8708347
  45.1826118  65.5631348  14.3058564  52.5392089  61.4965736  12.5684952
  52.2245530  62.1869215  13.0005374  52.0219031  61.4410518  11.8670452
  52.4156560  61.5900625  12.5281901  39.3248159  81.1088215  14.2853502
  38.8415738  81.8338705  14.2613085  40.1371478  81.4064345  14.3963659
  39.3738907  81.2590569  14.2980781  45.3962313  79.9020396  16.8903316
  44.8789255  79.5427811  16.2864624  46.0936705  79.3782570  16.9009382
  45.4227895  79.7718084  16.8033575  49.0525905  80.3515210  22.8519489
  49.1409251  80.1641350  23.6997699  49.4815618  79.7052639  22.4524336
  49.1288008  80.2278217  22.9191241  46.6196365  79.6346370  21.8337151
  46.0567200  79.2218980  22.3576812  47.3817389  79.5599275  22.2530295
  46.6490814  79.5623770  21.9730152  43.5371635  63.5692502   9.8058289
  44.2917603  63.9370819   9.5675339  43.3599170  63.9432056  10.5737468
  43.6226114  63.6790690   9.8843177  56.8306534  69.7186942  17.8505828
  55.9934955  69.7889129  18.0853422  56.7994765  69.7211437  16.9780130
  56.7024817  69.7297169  17.7565376  43.2271263  71.8619978  23.5654197
  43.3991767  71.7525872  24.4139478  43.7640621  72.5074383  23.3285389
  43.3316267  71.9411980  23.6559293  41.8928700  65.9762821   6.5036402
  41.7104273  66.1934702   5.6777394  42.7554313  66.0901833   6.5595016
  41.9933290  66.0252719   6.3890889  41.5043132  77.8150743  13.9459389
  42.3432031  78.0473676  13.9933151  41.5354901  76.9455054  13.8766425
  41.6324850  77.7207689  13.9424034  42.1295835  78.2351618  18.2472695
  42.6694060  78.0922749  18.9176067  41.4465781  78.6348369  18.6156721
  42.1087989  78.2731289  18.4007117  47.5728419  62.9789231   9.5385425
  48.3014580  62.8005186   9.0923582  47.6623312  63.8207311   9.7492604
  47.6935081  63.0773110   9.5038943  49.1645965  79.7824229  25.5163273
  49.9486381  79.8955077  25.8819015  48.9642559  78.9565366  25.7121958
  49.2511990  79.6770948  25.5997659  37.5332980  74.4551909  18.4007117
  37.2671395  73.6391026  18.5598107  37.5471544  74.5005064  17.5302632
  37.4957702  74.3408814  18.2960599  54.5114374  64.7829724  16.4349550
  55.1540282  64.8527828  17.0211466  54.7637395  64.1158947  15.9329092
  54.6436506  64.6956072  16.4476830  42.2831587  67.9930287  21.0474124
  41.5903383  67.5227267  21.2934856  42.8991914  67.7668592  21.6215831
  42.2716116  67.8897419  21.1683277  49.3216358  81.6934331  19.1629728
  48.5231604  81.4533831  19.4203597  49.7702370  81.7448724  19.9096776
  49.2690969  81.6656722  19.3114653  37.9426394  75.2410688  15.6818861
  37.7601967  75.2157574  14.8291153  38.6776063  75.7109626  15.7207770
  38.0240458  75.3072051  15.5616779  41.0072145  71.9595691  22.1900969
  41.7312118  71.9448722  22.6765864  41.1088282  72.6691046  21.6922938
  41.1290355  72.0620394  22.1879756  48.3817095  75.4394776  27.0549916
  47.5890076  75.7538288  27.2402536  48.4966022  75.6546244  26.2170701
  48.2812505  75.5178612  26.9588251  49.3100888  75.3414980  21.9935213
  49.8839749  74.7042224  22.1483777  49.2315691  75.3419062  21.1244871
  49.3834123  75.2480091  21.8881624  37.9097304  72.1204189  15.8317927
  38.4870807  71.9840640  16.4710173  37.2111366  71.6639973  16.0863512
  37.8918326  72.0326455  15.9640217  44.6664606  73.7738245  14.0456411
  44.4083851  72.9409980  14.0187710  44.7213089  73.9995858  13.2048911
  44.6364384  73.6836016  13.9176547  49.7465656  65.8766695  14.1460503
  49.0421983  65.3875881  14.3044422  49.7950631  65.8889170  13.2748948
  49.6495708  65.8056343  14.0399843  43.6399318  71.3276007  14.5321305
  43.0648910  71.4868175  15.1685266  43.2634995  70.6911416  14.0689756
  43.5002131  71.2573820  14.5575864  47.3072607  69.7999356  19.3913684
  46.9187040  69.3753574  18.7365875  46.6427305  70.0481506  19.8990710
  47.1519535  69.7738078  19.3701552  33.3856137  70.9716082  12.5465746
  33.4716389  70.5947950  13.3279276  34.0131935  70.5976528  12.0685704
  33.4912688  70.8601564  12.5911223  51.1298969  63.4973985  16.9037668
  51.5109480  62.8152156  17.2905542  50.3262253  63.2083587  16.7213332
  51.0675430  63.3541034  16.9341724  54.6321036  76.7123957  22.0020066
  54.3959673  75.8812022  21.8832127  55.2764264  76.6609564  22.5874911
  54.6915706  76.5821645  22.0705960  38.9732096  79.7407815  16.5997107
  39.0136241  80.0122666  15.7716886  39.5326620  80.2649723  17.0154894
  39.0615442  79.8583570  16.5388995  45.0890809  66.0028183  26.7700276
  44.7744250  66.7727746  26.5069839  44.7680742  65.4398439  26.1852503
  44.9949728  66.0338452  26.6441626  55.6557456  76.4968406  18.0648361
  55.3503273  77.2296463  18.4261676  54.9363672  76.0906335  17.7841147
  55.5044798  76.5450139  18.0761498  42.6422706  64.3918705  12.3846473
  41.7745131  64.4641304  12.4504082  42.9297910  65.1940784  12.5734448
  42.5562454  64.5212852  12.4221239  51.7655595  64.5396564  20.7157795
  52.5109187  64.3506375  20.3021220  51.3492899  65.0654802  20.1571651
  51.8140569  64.5898710  20.5722368  45.7940256  75.7444390  20.2123193
  45.2951950  76.4560158  20.2908081  46.6040481  76.0645057  20.1741355
  45.8396363  75.8971239  20.2179761  42.0568374  75.0067343  14.4585914
  41.7681623  74.3804814  14.9931641  42.9251722  74.9487630  14.5250594
  42.1428626  74.9054887  14.5476868  52.8446272  70.1502126  14.7767896
  52.5011038  69.4292462  15.1275145  52.9439314  69.9415978  13.9346254
  52.8088315  70.0126330  14.7039576  44.7207314  68.6025434  25.5085491
  43.9107090  68.9083214  25.3975334  45.1982001  69.3231017  25.6238075
  44.6710793  68.7540036  25.5092562  43.5798874  77.8171155  15.7568394
  43.0579628  77.9571447  16.4420259  43.9672894  77.0581820  15.9470512
  43.5602575  77.7256679  15.8869471  40.5690058  67.8676964   9.8263349
  40.2814854  67.4978235   9.0895296  41.2560526  68.3371820   9.5647054
  40.6278955  67.8823934   9.6778425  43.4043730  71.7329912  11.2730754
  44.1266382  71.8971071  10.8134560  42.9251722  72.4539577  11.1670093
  43.4407460  71.8628142  11.1896368  51.3637237  68.0693711  16.6527439
  50.5248338  68.0954990  16.4165702  51.4341605  68.7164447  17.2332785
  51.2505631  68.1689837  16.7036556  41.0551346  74.1387985  20.3784894
  41.5672443  74.4172238  19.7293653  40.7687689  74.8777279  20.7447707
  41.0886210  74.2890338  20.3374772  49.8106516  64.9679088  11.3855055
  50.5132868  64.7686837  10.9075013  49.5450704  64.1955031  11.6923898
  49.8753148  64.8242054  11.3600496  38.1418253  68.6458177  10.6748630
  38.2434389  69.4484338  11.0029605  38.9374139  68.4445513  10.3771711
  38.2746158  68.7344075  10.6783985  44.5735072  66.2314373  20.4385935
  44.3818269  66.2469508  21.2885359  45.4233668  66.4278048  20.4152590
  44.6710794  66.2628725  20.5609230  38.9581985  68.7605355  18.4169752
  38.8167477  67.9089296  18.5414260  39.2422548  68.8034016  17.5931958
  38.9789831  68.6405105  18.3137376  49.1120577  70.5972445  12.5614240
  48.8655291  70.5168196  13.3951029  49.4405700  69.8125913  12.3676767
  49.1241821  70.4698710  12.6561763  51.3446711  73.6052180  22.6023403
  51.3394750  72.7331996  22.6065829  52.0507705  73.8040349  22.1292859
  51.4491715  73.5056054  22.5330438  45.0717604  73.3329164  21.9737223
  45.2160980  73.9130372  21.3380333  45.4193253  73.7105460  22.6787078
  45.1445066  73.4749868  21.9836218  47.2437522  72.5319332  19.7562355
  46.4960836  72.7250346  19.3510633  47.3979047  71.7064552  19.5186476
  47.1559949  72.4384443  19.6607760  44.1445359  81.5231935  18.8398250
  44.2934923  80.9634851  18.1871654  44.9245362  81.6023937  19.2230769
  44.2819453  81.4517501  18.7995199  46.6698660  81.6946578  20.1182741
  46.5942331  81.0255389  20.6733529  46.5988519  82.3964367  20.6323407
  46.6479267  81.6991486  20.2759589  47.4839299  66.4269883  20.6457758
  47.9411913  67.1593857  20.7730551  47.5595628  66.0036348  21.4045014
  47.5630269  66.4727121  20.7758835  39.7272290  66.6735702  21.7347202
  39.1914480  66.0616061  22.0507969  39.7890055  67.2483838  22.3880869
  39.6567923  66.6682630  21.8782629  51.9566625  59.6059758  14.5151601
  52.0750193  60.0636221  13.7818904  51.7828800  58.8005019  14.2287819
  51.9485796  59.5553530  14.3652535  45.3621677  68.4171987  17.4899582
  44.5717751  68.2363447  17.8116918  45.7582300  67.6398939  17.4729877
  45.3038553  68.2759448  17.5352131  50.7465363  76.0514417  15.2159028
  50.0710365  75.8199649  15.7172415  50.7557739  75.4435600  14.5901133
  50.6483868  75.9273342  15.1975180  47.8759507  70.8932246  21.9723081
  47.8118648  71.7542202  21.8443218  48.0156695  70.5764239  21.1718633
  47.8874977  70.9732412  21.8351294  46.5578601  73.5864385  16.1139284
  46.1340850  73.7868884  15.3778302  46.3823456  72.7393233  16.2263584
  46.4689482  73.4913167  16.0212974  46.0590294  85.1014898  18.5760741
  46.5486225  84.4025687  18.3936406  45.4874527  84.8038768  19.1636799
  46.0474824  84.9541122  18.6361782  41.8461046  74.0816437  11.5467257
  42.0025665  74.0163239  12.4023249  42.1861639  74.8564989  11.3345936
  41.9194281  74.1865635  11.6421851  52.2557298  77.6676967  27.5287532
  53.0692163  77.3962116  27.6892665  52.0952264  77.3684507  26.7247728
  52.3527246  77.5831894  27.4332938  49.5329460  68.3510625  20.4682920
  49.7471429  67.7121539  19.9146274  48.9163359  68.7956449  20.0390782
  49.4734789  68.3220768  20.3233351  38.4195307  71.2651387  11.8628024
  38.7994272  71.6835932  11.1988291  37.8450672  71.8464843  12.1696867
  38.3906632  71.4129246  11.8104765  51.6968548  69.9599690  21.4066227
  50.8845230  69.6525580  21.4879400  52.1558482  69.4798690  21.9708940
  51.6448933  69.8436182  21.5020822  48.9244189  61.4610560  15.4570263
  48.0537746  61.4349281  15.4103573  49.1784530  61.2887752  14.6396109
  48.8337749  61.4320704  15.3290400  48.7922055  71.3659761  26.1894930
  49.2621687  71.9901878  26.5762804  48.8383936  70.6976737  26.7488144
  48.8689931  71.3594442  26.3295001  45.9493329  63.4716789  16.9143734
  45.4331818  62.7796980  17.0395313  45.3887258  64.1387566  16.8606332
  45.7899842  63.4680046  16.9249800  48.0185562  64.0109749  18.7436586
  47.6317316  64.0358780  19.5250116  47.5318500  63.4451427  18.2911103
  47.8898071  63.9305500  18.7924490  52.2678542  78.7283258  22.8010373
  52.9058262  78.2343453  22.4672829  51.6252633  78.6560658  22.2162599
  52.2672768  78.6442266  22.6652728  53.9935542  70.5772404  17.3676288
  53.5663150  70.4898752  16.6124388  53.3561595  70.6850179  17.9531132
  53.8365149  70.5805064  17.3421730  47.6842704  60.8976734  21.0346846
  48.3135822  61.4337034  20.7567916  47.8528567  60.8054093  21.8860412
  47.8020499  60.9638097  21.1195374  47.4856619  65.6847929  23.3073258
  48.3130048  65.4133078  23.3631872  47.5064465  66.4808771  23.6637076
  47.6109469  65.7627683  23.3688441  52.3232798  79.4203066  19.4415729
  53.1125177  79.0692131  19.5617811  52.4976396  80.2339454  19.1792363
  52.4653080  79.4888923  19.4203597  42.0626109  72.8311792  16.4943518
  41.2214115  72.7315666  16.7022412  42.2716117  73.6007272  16.8457839
  41.9690801  72.9303835  16.5770833  39.5401676  70.4531329  14.3228269
  39.1458374  70.5274341  13.5478379  38.9841793  70.8389275  14.8736631
  39.4004488  70.5213103  14.2895929  51.1766623  63.4312623  14.0032148
  51.3816216  63.3634931  14.8489145  50.8493047  64.2371444  13.9353325
  51.1581871  63.5398563  14.1191803  45.8742774  70.7593191  15.7441116
  45.5705911  70.2049179  16.3451523  45.1722195  70.9385401  15.2569150
  45.7258984  70.7037973  15.7610821  44.9308871  68.0693711  10.3085818
  45.2068605  67.3512623   9.8963385  45.5307540  68.6678631  10.1006924
  45.0602135  68.0514082  10.2166579  43.9361125  77.9742912  20.4513214
  43.8281480  77.9844974  21.3175272  44.1456906  78.7997692  20.2618167
  43.9511236  78.0983986  20.5517305  54.4300310  63.9844387  13.4834913
  53.8174624  64.4714789  13.8688645  54.5264485  63.3087878  14.0272564
  54.3538208  63.9562696  13.6213771  48.4319391  65.7407228   8.5832413
  48.8863138  65.9117789   9.3080257  48.9059437  65.1275339   8.1830188
  48.5687711  65.6758113   8.6306174  41.9534917  75.2255554  17.9135151
  41.3622850  75.8665052  17.8838166  42.7155940  75.6493171  17.8866451
  41.9783177  75.3831393  17.9050298  42.3495540  66.3857552  18.5803169
  42.8097021  66.4596481  19.3178293  42.3951646  67.1838806  18.2302990
  42.4246095  66.5151699  18.6375925  43.9978889  67.0524247  23.1475196
  43.6064454  66.4057594  23.5830974  44.1664752  67.6435682  23.7669451
  43.9649800  67.0438515  23.3037902  58.0725338  75.0561324  18.9112429
  58.1308462  75.5047973  19.6572406  57.4391806  75.4660137  18.4742509
  57.9876633  75.1835058  18.9564978  47.6911987  64.2400021  14.7209281
  46.8448032  64.4122829  14.5950631  47.6883119  63.4349365  15.0575110
  47.5659137  64.1461050  14.7520408  48.7610287  68.0175236  15.5871339
  48.2870241  67.4916998  16.0976650  49.1328423  67.4704709  15.0186201
  48.7460176  67.8591232  15.5786486  39.1383317  70.0146743  20.9554885
  40.0008930  69.9142452  20.8692215  38.8075100  69.4341452  20.3940457
  39.2168514  69.9138369  20.8600291  55.0247018  73.0777611  16.9978120
  54.7845241  72.2384027  17.0020546  55.5039025  73.1577778  17.7218893
  55.0599201  72.9659011  17.1052922  57.0252205  69.8579069  14.9507379
  56.7861975  69.8174903  14.1128163  57.1886106  70.7050221  15.0773100
  57.0142508  69.9771154  14.8460861  53.6298235  74.2429018  20.8812424
  54.3532434  73.7901544  20.7023444  53.3648197  74.5233684  20.0984752
  53.6979508  74.2179986  20.7391139  42.4985103  68.8389192  17.6165303
  41.8738173  68.8507583  17.0091256  42.1630698  69.3149367  18.2656543
  42.3570595  68.9107709  17.6221872  39.2110779  76.8989652  19.0569067
  38.6810703  76.2082091  19.1064042  39.4835872  76.8899837  18.2281776
  39.1735501  76.7956783  18.9416483  49.4117024  74.3412896  19.0307439
  48.7974018  73.7970947  19.3256074  49.9284309  73.8277133  18.5513255
  49.3972687  74.1849305  19.0031667  48.6513322  75.4117166  16.7651738
  48.2240930  74.7866885  16.3317173  48.6438266  75.1292088  17.5910745
  48.5872463  75.2769947  16.8231565  41.7675849  70.4482339  19.8340172
  41.9269335  69.6925663  20.2391894  41.5868742  70.9973279  20.4880909
  41.7641208  70.4176153  19.9902878  49.7096152  62.6143575  20.3890961
  49.2136713  62.8107249  19.6982528  50.4665214  63.0136243  20.2179763
  49.7482976  62.7021309  20.2611098  46.9799031  66.2885921  16.9794272
  47.0041518  65.7546033  16.2907052  47.2310505  65.7803230  17.6419862
  47.0208950  66.1346825  16.9758916  34.4906621  73.5717416  16.4137416
  34.3850070  73.5264260  15.5489500  33.7406841  73.9171196  16.6951701
  34.3642224  73.6158324  16.3274745  43.2600354  65.0156739  16.3600016
  43.2998725  65.5165946  17.0734723  42.4350018  65.1067133  16.0905939
  43.1439879  65.1038555  16.4250554  45.4429966  74.5817479  24.4620311
  44.5925597  74.7189193  24.5977955  45.6058094  73.8481257  24.9068012
  45.3413830  74.4931580  24.5475910  44.6814717  71.5317249  18.6573915
  43.8506647  71.6991067  18.4509163  44.6266234  71.1553200  19.4422800
  44.5504132  71.5006980  18.7422443  42.4898500  65.0226142  24.2930326
  43.1151204  64.4788275  24.5659758  42.0348980  64.5421059  23.7238116
  42.5146761  64.8715623  24.2491920  43.0550761  69.8072840   9.1864033
  43.1953722  70.3045305   9.8892674  43.5533294  69.1059135   9.3278246
  43.1491842  69.7774819   9.3115612  56.0633549  73.2055429  19.3842974
  56.6551389  73.8452680  19.4161172  56.4992543  72.5078466  19.6735041
  56.2151980  73.1973779  19.4323806  47.8926939  77.6272801  20.0100868
  47.3852030  78.1808648  20.4541498  47.5953585  77.6881091  19.1919642
  47.7731824  77.7179112  19.9549324  50.0589121  65.9926121  18.8525531
  50.4844193  65.5398647  18.2409057  49.4446114  65.4386192  19.1290318
  50.0317766  65.8440097  18.8030556  39.5903971  72.8707792   9.7846156
  40.0996200  73.4672300  10.1657461  40.0638243  72.6033766   9.1022575
  39.7347347  72.9193608   9.7400678  48.4983344  62.4641221  12.2616108
  47.8551662  62.3138867  12.8301246  48.1582751  62.2183566  11.4965212
  48.3528421  62.4053343  12.2319123  53.2510818  66.8756531  14.5936489
  53.6038428  66.4486254  15.2682288  52.3925619  66.7907375  14.7237566
  53.1760262  66.8001272  14.7131500  41.9494503  69.5064051  12.6519336
  41.2306492  69.9228183  12.9192200  42.3206865  70.0718290  12.1010974
  41.8986435  69.6513332  12.6102143  51.2494084  70.1391900  18.5421332
  51.2292011  69.9575195  19.3956111  51.2973284  71.0103918  18.5180915
  51.2528725  70.2408438  18.6644626  49.1940413  76.7279092  24.4669808
  49.1536268  76.0828769  23.8814964  50.0063732  76.6715709  24.7795220
  49.3083567  76.6238058  24.4266757  54.6834878  61.9974943  15.5220802
  54.1765742  61.2904082  15.4541979  55.4802312  61.6668132  15.6521879
  54.7262117  61.8448094  15.5319797  50.5998894  68.5041555  11.4194466
  50.3712587  68.5274257  10.5772824  50.8596970  67.6799022  11.5389476
  50.6045082  68.3857635  11.3119663  44.8818122  70.3576028  21.0219566
  44.3697025  69.7497211  21.3804597  44.7097618  71.0732621  21.4893542
  44.7807759  70.3739327  21.1435790  39.7283837  68.8013604  23.6721928
  39.5586427  69.4614978  23.1270134  39.2849787  69.0120165  24.3934417
  39.6383170  68.9299586  23.6983557  43.6543656  67.0418101  12.7148661
  44.1301022  67.4035181  12.0798842  43.1532256  67.6974569  12.9948804
  43.6509015  67.1912290  12.6625402  48.7587192  68.2800273  23.4621821
  49.3158623  68.0514082  22.8300287  48.4348257  69.0405938  23.1857034
  48.7933603  68.3584110  23.3278319  36.6285901  71.7060469  18.9310417
  36.0812621  71.0361115  19.0491286  37.4178280  71.3390317  18.9953885
  36.6638085  71.5525455  18.9579118  46.4770310  71.3667926  24.4273829
  47.2281637  71.6819603  24.7413383  46.6692886  71.1647097  23.6007750
  46.6161724  71.3835308  24.3517224  53.3255600  67.4941492  11.6697624
  53.3249826  67.3390149  12.5281900  53.1211780  68.3404480  11.6139010
  53.2955378  67.5962113  11.7885563  35.3872871  70.9181277  16.0856441
  35.2094632  70.4657886  16.8111356  35.0991893  71.7207438  16.2694918
  35.3185824  70.9703835  16.2199943  51.0496452  72.1738994  15.3233831
  51.5450117  71.4561989  15.2837851  50.2396228  71.8709792  15.2088318
  51.0040345  72.0236641  15.3007557  37.1245341  73.4509001  13.1978200
  36.2590860  73.4394691  13.0860971  37.2244157  73.2639223  14.0449339
  37.0119508  73.4215062  13.3067144  53.1148271  74.9242682  18.0110960
  53.5403342  74.4017104  17.4581385  52.7505191  75.5223519  17.4899583
  53.1234873  74.9352909  17.8519969  42.7502351  83.2206899  16.7708305
  43.0648910  84.0343288  16.7786087  43.1595764  82.8357118  17.4390464
  42.8570449  83.2835602  16.8712397  51.7903855  80.2478259  26.5204189
  51.9000820  79.4586820  26.8760936  52.1194751  80.1584196  25.7178527
  51.8556261  80.1184112  26.4546580  46.6196365  63.4104417  21.2970212
  46.7524271  62.6135410  21.6251187  47.0041518  63.9370820  21.8768487
  46.6952694  63.3704333  21.4313715  50.3400817  78.4294880  21.1039810
  49.7921763  77.8052764  20.8359875  50.8013845  78.6189152  20.3883889
  50.3268026  78.3653930  20.9590241  49.6928720  60.3334743  17.8951305
  48.8874684  60.2232472  18.2119143  49.5635456  60.4347198  17.0381171
  49.5548853  60.3318413  17.8159346  53.1494681  66.4980235  18.4891002
  52.5657670  66.9989441  18.0768569  53.4698975  65.9909791  17.8555325
  53.1107856  66.4972070  18.3349509  45.6889480  65.4120829   8.7649677
  46.5105174  65.5819142   8.5231372  45.2259131  65.5668090   8.0415974
  45.7420642  65.4602562   8.6221321  44.2784812  63.4063592  19.5448106
  44.8229225  63.0654718  20.1352447  44.3321748  64.2649053  19.6869390
  44.3673931  63.4818851  19.6529979  40.0915371  77.1680008  16.4186914
  40.6960228  77.1275842  15.7900734  39.8842683  78.0151160  16.4490969
  40.1504268  77.2868010  16.3303030  49.9059143  79.4345953  17.6349151
  50.7257517  79.2908919  17.8965446  49.6253221  80.0592152  18.1765589
  49.9855886  79.5056305  17.7537090  35.3266653  76.1514625  16.2885837
  35.2290931  75.3410897  16.5975893  36.1095523  76.1306419  15.9032105
  35.4282790  76.0281715  16.2772700  53.2564170  83.5115595  21.0474124
  52.5635967  83.0412575  21.2934856  53.8724497  83.2853900  21.6215831
  53.2448700  83.4082727  21.1683277  56.0623393  81.5213491  26.7700276
  55.7476834  82.2913054  26.5069839  55.7413325  80.9583747  26.1852503
  55.9682312  81.5523760  26.6441626  55.6939898  84.1210742  25.5085491
  54.8839674  84.4268522  25.3975334  56.1714585  84.8416325  25.6238075
  55.6443377  84.2725344  25.5092562  50.7004874  82.1921010  21.7347202
  50.1647063  81.5801369  22.0507969  50.7622638  82.7669146  22.3880869
  50.6300506  82.1867938  21.8782629  58.6575288  76.4162042  21.0346846
  59.2868406  76.9522342  20.7567916  58.8261150  76.3239401  21.8860412
  58.7753082  76.4823404  21.1195374  58.4589203  81.2033237  23.3073258
  59.2862632  80.9318386  23.3631872  58.4797049  81.9994079  23.6637076
  58.5842053  81.2812991  23.3688441  54.9711473  82.5709555  23.1475196
  54.5797038  81.9242902  23.5830974  55.1397336  83.1620990  23.7669451
  54.9382383  82.5623823  23.3037902  50.1115901  85.5332050  20.9554885
  50.9741514  85.4327760  20.8692215  49.7807684  84.9526760  20.3940457
  50.1901097  85.4323677  20.8600291  53.4631084  80.5411450  24.2930326
  54.0883787  79.9973583  24.5659758  53.0081564  80.0606367  23.7238116
  53.4879344  80.3900931  24.2491920  50.7016420  84.3198911  23.6721928
  50.5319011  84.9800286  23.1270134  50.2582370  84.5305473  24.3934417
  50.6115754  84.4484894  23.6983557  57.5928949  78.9289725  21.2970212
  57.7256854  78.1320718  21.6251187  57.9774102  79.4556128  21.8768487
  57.6685278  78.8889641  21.4313715  55.2517396  78.9248900  19.5448106
  55.7961809  78.5840026  20.1352447  55.3054331  79.7834361  19.6869390
  55.3406515  79.0004159  19.6529979  29.6619268  22.8295189  11.8945461
  30.3686035  22.3347219  12.0232395  29.8507203  23.2704270  11.1648119
  29.7947173  22.8213539  11.8054506  26.8011562  26.2522725   9.7859536
  26.8894908  26.0648866  10.6337746  27.2301275  25.6060155   9.3864383
  26.8773665  26.1285733   9.8531287  24.3682022  25.5353885   8.7677198
  23.8052857  25.1226495   9.2916859  25.1303045  25.4606791   9.1870341
  24.3976471  25.4631286   8.9070198  26.9131621  25.6831744  12.4503319
  27.6972038  25.7962592  12.8159062  26.7128216  24.8572881  12.6462005
  26.9997647  25.5778464  12.5337705  27.0702015  27.5941846   6.0969775
  26.2717261  27.3541346   6.3543644  27.5188026  27.6456239   6.8436823
  27.0176626  27.5664237   6.2454699  26.1302752  21.3402291  13.9889963
  25.3375732  21.6545803  14.1742583  26.2451679  21.5553760  13.1510748
  26.0298162  21.4186128  13.8928298  32.3806692  22.6131472   8.9360113
  32.1445330  21.7819537   8.8172174  33.0249921  22.5617080   9.5214957
  32.4401363  22.4829160   9.0046007  24.4184317  27.5954094   7.0522787
  24.3427988  26.9262904   7.6073576  24.3474176  28.2971882   7.5663454
  24.3964924  27.5999001   7.2099636  23.8075951  31.0022413   5.5100788
  24.2971881  30.3033203   5.3276453  23.2360183  30.7046283   6.0976846
  23.7960481  30.8548637   5.5701829  30.0042955  23.5684483  14.4627579
  30.8177820  23.2969632  14.6232711  29.8437921  23.2692023  13.6587775
  30.1012903  23.4839409  14.3672985  26.5407712  17.2667277  13.1234977
  27.0107343  17.8909393  13.5102851  26.5869592  16.5984252  13.6828191
  26.6175588  17.2601957  13.2635048  30.0164199  24.6290773   9.7350419
  30.6543919  24.1350969   9.4012876  29.3738290  24.5568174   9.1502646
  30.0158425  24.5449782   9.5992774  30.0718455  25.3210581   6.3755776
  30.8610833  24.9699646   6.4957858  30.2462053  26.1346970   6.1132410
  30.2138737  25.3896439   6.3543644  23.1915623  20.4824994  11.3960357
  22.3411254  20.6196709  11.5318002  23.3543751  19.7488773  11.8408059
  23.0899487  20.3939096  11.4815957  26.9426070  22.6286607  11.4009855
  26.9021925  21.9836284  10.8155011  27.7549388  22.5723224  11.7135267
  27.0569224  22.5245574  11.3606804  29.5389512  26.1485775  13.4544236
  29.6486477  25.3594335  13.8100983  29.8680408  26.0591711  12.6518574
  29.6041917  26.0191628  13.3886627  28.0886473  24.3302395   8.0379857
  27.5407419  23.7060279   7.7699922  28.5499502  24.5196668   7.3223936
  28.0753683  24.2661446   7.8930288  44.1258450  32.9918320  -2.4667926
  44.0952454  33.8462957  -2.2949657  44.7239799  32.6913612  -1.9081782
  44.2095608  33.0734816  -2.3593124  37.3258135  32.0793971   2.2885005
  36.4696030  32.2402469   2.3394121  37.3725789  31.2086035   2.3090066
  37.2057246  31.9744773   2.2991071  31.7099275  41.6156689  -1.9477764
  30.9582174  41.2372227  -2.1761719  32.1585286  41.6475122  -2.6958954
  31.6648941  41.5642296  -2.0920262  40.6351851  38.3480497  11.8945461
  41.3418619  37.8532527  12.0232395  40.8239787  38.7889578  11.1648119
  40.7679757  38.3398847  11.8054506  36.7028526  43.9896327  -0.5781105
  37.0867905  44.5583226  -1.1176330  36.6387667  43.2645837  -1.0575289
  36.7501953  43.9671790  -0.7287243  40.1709956  34.1386015   4.9316656
  40.7165916  34.8171101   4.9910626  40.1126832  33.9973476   4.0718238
  40.2425870  34.2178016   4.8128717  33.2884031  41.6275081   0.3185009
  33.3894394  40.8175435   0.6282136  32.6925776  41.5332027  -0.3115313
  33.2156569  41.4940109   0.2711247  41.9475025  35.5670622  -4.1949616
  41.8314550  36.3178308  -3.7657478  42.7430911  35.3094575  -3.9453529
  42.0479614  35.6405469  -4.0945524  33.1284770  46.5452670   1.7199865
  33.7722226  46.9865834   2.1096023  33.4541026  45.7406096   1.6330123
  33.2716599  46.4917865   1.7645342  33.8305350  39.5564645  -2.9080274
  34.1521191  40.0969852  -3.5118966  34.4777447  38.9861416  -2.7757984
  33.9731405  39.5523820  -2.9773238  28.5108296  33.3633380   5.0865219
  28.3866992  33.9495825   5.7215038  29.1626580  32.8693575   5.3877494
  28.5881945  33.3772184   5.2251148  36.0694994  37.9451085  -2.8366095
  36.5088629  37.3368185  -2.3911323  35.9199656  37.5658458  -3.6080630
  36.1116459  37.7989556  -2.8846928  33.5366637  36.5395097   4.3652730
  34.1815639  36.0467540   4.0463679  33.7768414  36.6819883   5.1918808
  33.6677222  36.4872539   4.4402263  36.0752728  39.3850003   4.0159623
  36.3575971  38.5901408   3.7946378  36.8038888  39.8630590   4.0364684
  36.2242292  39.3384600   3.9862638  46.0570816  38.4909365   0.9895453
  45.2268519  38.7020008   1.1528870  46.0080069  37.6646419   0.7137737
  45.9277552  38.3998971   0.9732819  28.0466400  42.5281038   1.2193548
  27.5633978  43.2531528   1.1953132  28.8589718  42.8257168   1.3303706
  28.0957147  42.6783392   1.2320828  34.1180554  41.3213219   3.8243363
  33.6007495  40.9620634   3.2204671  34.8154945  40.7975393   3.8349429
  34.1446135  41.1910907   3.7373622  37.7744146  41.7708033   9.7859536
  37.8627492  41.5834173  10.6337746  38.2033858  41.1245463   9.3864383
  37.8506248  41.6471041   9.8531287  35.3414606  41.0539193   8.7677198
  34.7785440  40.6411803   9.2916859  36.1035629  40.9792099   9.1870341
  35.3709054  40.9816594   8.9070198  30.9010597  43.0437214   1.3713828
  31.6031176  42.5289203   1.4286585  30.8208080  43.3711366   2.1760703
  30.9934357  43.0151440   1.4986620  45.5524775  31.1379765   4.7845875
  44.7153196  31.2081953   5.0193469  45.5213005  31.1404260   3.9120177
  45.4243057  31.1489992   4.6905423  31.9489504  33.2812801  10.4994243
  32.1210007  33.1718696  11.3479525  32.4858861  33.9267207  10.2625436
  32.0534508  33.3604803  10.5899340  30.2261372  39.2343566   0.8799436
  31.0650272  39.4666499   0.9273198  30.2573142  38.3647878   0.8106472
  30.3543090  39.1400513   0.8764081  30.8514075  39.6544441   5.1812742
  31.3912300  39.5115572   5.8516114  30.1684022  40.0541192   5.5496768
  30.8306229  39.6924112   5.3347164  40.2754960  35.3335442   0.3757766
  41.0312475  35.7666956   0.4146675  40.3817285  34.6840212   0.9492402
  40.4025131  35.3012926   0.4655792  43.3135131  39.1608719   1.1260169
  42.8770363  39.1645462   1.8819141  42.9798047  39.8414218   0.6939747
  43.1997751  39.2621175   1.1741002  37.8864205  41.2017052  12.4503319
  38.6704622  41.3147900  12.8159062  37.6860800  40.3758189  12.6462005
  37.9730230  41.0963771  12.5337705  26.2551220  35.8744732   5.3347163
  25.9889636  35.0583849   5.4938154  26.2689785  35.9197888   4.4642679
  26.2175943  35.7601637   5.2300645  43.2332614  26.2022547   3.3689597
  43.8758523  26.2720652   3.9551512  43.4855635  25.5351770   2.8669139
  43.3654746  26.1148896   3.3816876  31.0049827  29.4123110   7.9814171
  30.3121624  28.9420090   8.2274903  31.6210154  29.1861415   8.5555878
  30.9934357  29.3090242   8.1023324  38.0434598  43.1127154   6.0969775
  37.2449844  42.8726654   6.3543644  38.4920610  43.1641547   6.8436823
  37.9909210  43.0849545   6.2454699  46.4479478  35.8789639   0.0179806
  47.1095912  35.3180308  -0.0824285  45.8070890  35.3841670   0.3432498
  46.4508345  35.7226048   0.0512147  26.6644634  36.6603512   2.6158908
  26.4820207  36.6350398   1.7631200  27.3994303  37.1302449   2.6547816
  26.7458698  36.7264874   2.4956826  42.7344308  36.8955022  -0.2408205
  42.9699898  37.0400220  -1.0681354  42.8833872  37.6597430   0.1523309
  42.7910112  37.0294076  -0.3044601  29.7290386  33.3788514   9.1241016
  30.4530358  33.3641545   9.6105911  29.8306522  34.0883870   8.6262984
  29.8508595  33.4813218   9.1219803  44.5634765  35.7356687  -2.4038601
  44.8942982  36.2684328  -3.0098506  45.1367853  35.7895575  -1.7476650
  44.6968444  35.8226256  -2.3960819  37.1035335  36.8587599  13.9889963
  36.3108316  37.1731111  14.1742583  37.2184262  37.0739067  13.1510748
  37.0030746  36.9371436  13.8928298  39.7766654  33.5821590  -1.7215021
  39.8713509  34.3210884  -1.2675395  39.1525498  33.1539066  -1.2880456
  39.6975684  33.6282911  -1.5906873  38.0319128  36.7607803   8.9275260
  38.6057990  36.1235047   9.0823824  37.9533932  36.7611885   8.0584918
  38.1052363  36.6672914   8.8221671  26.6315544  33.5397012   2.7657974
  27.2089047  33.4033463   3.4050220  25.9329606  33.0832796   3.0203559
  26.6136566  33.4519278   2.8980264  33.3882847  35.1931068   0.9796457
  33.1302091  34.3602803   0.9527757  33.4431329  35.4188681   0.1388958
  33.3582625  35.1028839   0.8516594  32.3617559  32.7468830   1.4661352
  31.7867150  32.9060999   2.1025313  31.9853235  32.1104239   1.0029803
  32.2220371  32.6766643   1.4915911  36.0290847  31.2192180   6.3253731
  35.6405280  30.7946397   5.6705922  35.3645546  31.4674329   6.8330757
  35.8737775  31.1930901   6.3041599  45.6714117  30.9767184  -0.8998439
  45.4150681  30.1647126  -1.0900557  46.5143431  30.9844751  -1.1268252
  45.7580142  30.8579182  -0.9613622  39.8517209  24.9166808   3.8377715
  40.2327721  24.2344980   4.2245589  39.0480493  24.6276411   3.6553379
  39.7893671  24.7733857   3.8681771  43.3539276  38.1316780   8.9360113
  43.1177913  37.3004845   8.8172174  43.9982505  38.0802388   9.5214957
  43.4133947  38.0014468   9.0046007  33.0037694  38.9212302  -0.3497150
  33.6411641  38.6824049   0.1954643  33.4292766  39.1249461  -1.0843990
  33.1613860  38.9163312  -0.3779993  27.6950336  41.1600638   3.5337153
  27.7354482  41.4315489   2.7056933  28.2544860  41.6842546   3.9494941
  27.7833682  41.2776393   3.4729042  33.8109049  27.4221007  13.7040323
  33.4962490  28.1920569  13.4409886  33.4898982  26.8591263  13.1192550
  33.7167968  27.4531275  13.5781673  44.3775697  37.9161229   4.9988408
  44.0721514  38.6489286   5.3601723  43.6581912  37.5099159   4.7181194
  44.2263039  37.9642962   5.0101545  35.3859166  39.3984724   1.3296636
  35.4598174  39.2359896   2.1838486  36.2028672  39.5874914   1.0857118
  35.5175525  39.4021467   1.4194662  50.0777489  34.5554230   4.3256752
  50.0101989  34.5750189   3.4559339  50.0633151  35.3984557   4.5512422
  50.0656245  34.6827964   4.2309229  29.1464923  39.7442587  -1.6408921
  28.3203040  39.9904324  -1.7674642  29.2076914  39.6654668  -0.7746863
  29.0339090  39.7687536  -1.5319976  40.4873835  25.9589388   7.6497841
  41.2327427  25.7699198   7.2361267  40.0711140  26.4847625   7.0911698
  40.5358809  26.0091533   7.5062415  33.9263752  42.3619467  -3.9389891
  34.2162050  41.9708449  -4.6630664  34.6567232  42.5436172  -3.4984615
  34.0770636  42.3313281  -3.9807084  47.8636106  33.3298616   2.6003346
  48.4144028  32.6966685   2.8400438  47.8480221  33.8614009   3.2918851
  47.9421302  33.3147564   2.7382205  34.5158497  37.1637213   7.1463240
  34.0170190  37.8752981   7.2248128  35.3258721  37.4837880   7.1081402
  34.5614604  37.3164062   7.1519808  31.8669667  44.3386850  -0.8729741
  31.6469963  44.0484205  -0.0803074  31.6464189  43.6801805  -1.4011829
  31.8017261  44.1986558  -0.8340832  30.7786614  36.4260166   1.3925961
  30.4899863  35.7997638   1.9271688  31.6469962  36.3680454   1.4590641
  30.8646866  36.3247711   1.4816915  41.5664512  31.5694950   1.7107943
  41.2229278  30.8485285   2.0615192  41.6657555  31.3608801   0.8686301
  41.5306555  31.4319153   1.6379623  34.0337623  45.7116240  -2.0899049
  34.6861681  45.1792682  -1.8608023  33.3363232  45.3584892  -1.7031175
  34.0268341  45.5805763  -1.9986881  42.0277541  38.0320654  -2.7468069
  42.5935574  38.6913864  -2.8309526  41.3805445  38.3770352  -2.2751667
  42.0156298  38.1802595  -2.6895313  33.4425555  30.0218258  12.4425538
  32.6325331  30.3276037  12.3315380  33.9200242  30.7423840  12.5578122
  33.3929034  30.1732859  12.4432609  32.3017114  39.2363979   2.6908441
  31.7797868  39.3764270   3.3760306  32.6891135  38.4774643   2.8810558
  32.2820815  39.1449503   2.8209518  38.4984119  40.9759438  -3.3230990
  38.2570795  40.2427299  -3.7303925  38.6785452  41.5246295  -3.9764657
  38.4891743  40.9481829  -3.4800767  40.0855478  29.4886534   3.5867485
  39.2466578  29.5147813   3.3505749  40.1559845  30.1357270   4.1672832
  39.9723871  29.5882660   3.6376602  29.7769587  35.5580808   7.3124940
  30.2890684  35.8365061   6.6633700  29.4905929  36.2970102   7.6787753
  29.8104450  35.7083162   7.2714818  43.9613001  34.6954521   0.8728727
  43.8746976  34.8509947   1.7263506  43.5063481  35.3392597   0.4988132
  43.8816258  34.8130276   0.9435834  33.2953312  27.6507197   7.3725982
  33.1036509  27.6662331   8.2225405  34.1451908  27.8470871   7.3492637
  33.3929034  27.6821548   7.4949277  27.6800225  30.1798178   5.3509798
  27.5385717  29.3282119   5.4754306  27.9640789  30.2226839   4.5272004
  27.7008071  30.0597928   5.2477423  37.8338818  32.0165268  -0.5045713
  37.5873532  31.9361019   0.3291076  38.1623941  31.2318736  -0.6983186
  37.8460061  31.8891534  -0.4098190  41.7286866  38.7248628   3.2841068
  41.5901226  39.4229673   3.7889810  40.9486864  38.5697284   2.9277250
  41.5930093  38.8048794   3.3067342  40.0664951  35.0245003   9.5363450
  40.0612990  34.1524820   9.5405876  40.7725945  35.2233172   9.0632905
  40.1709955  34.9248877   9.4670485  33.7935845  34.7521987   8.9077270
  33.9379221  35.3323195   8.2720380  34.1411493  35.1298284   9.6127124
  33.8663306  34.8942691   8.9176265  35.9655762  33.9512155   6.6902401
  35.2179076  34.1443170   6.2850679  36.1197287  33.1257375   6.4526523
  35.8778190  33.8577267   6.5947807  32.8663600  42.9424759   5.7738297
  33.0153164  42.3827675   5.1211701  33.6463602  43.0216760   6.1570815
  33.0037693  42.8710324   5.7335246  43.2240239  38.0826881  -5.9542433
  42.8447048  37.2964019  -5.9613143  42.5606485  38.6313738  -6.0970789
  43.0698714  38.0471705  -5.9761636  35.3916900  43.1139402   7.0522787
  35.3160572  42.4448212   7.6073576  35.3206760  43.8157190   7.5663454
  35.3697507  43.1184309   7.2099636  36.2057539  27.8462706   7.5797805
  36.6630153  28.5786680   7.7070597  36.2813868  27.4229171   8.3385061
  36.2848509  27.8919944   7.7098882  28.4490530  28.0928526   8.6687249
  27.9132720  27.4808884   8.9848016  28.5108295  28.6676662   9.3220915
  28.3786163  28.0875453   8.8122676  36.0487147  41.6340400  -2.1153607
  36.8137038  41.3650044  -2.4370942  35.9465237  41.1490411  -1.3983544
  36.1468643  41.5229965  -2.0573779  34.0839917  29.8364810   4.4239629
  33.2935992  29.6556270   4.7456965  34.4800540  29.0591762   4.4069924
  34.0256793  29.6952271   4.4692177  39.4683603  37.4707240   2.1499075
  38.7928605  37.2392472   2.6512462  39.4775979  36.8628423   1.5241180
  39.3702108  37.3466165   2.1315227  36.5977747  32.3125069   8.9063128
  36.5336889  33.1735025   8.7783265  36.7374935  31.9957062   8.1058679
  36.6093217  32.3925236   8.7691341  41.4700338  40.3272372  -5.6190747
  41.5520175  41.1339359  -5.9429296  41.9550080  40.3468332  -4.8949974
  41.5537496  40.4493035  -5.5603848  35.2796841  35.0057208   3.0479331
  34.8559090  35.2061707   2.3118349  35.1041696  34.1586056   3.1603631
  35.1907722  34.9105990   2.9553021  34.7808535  46.5207721   5.5100788
  35.2704465  45.8218511   5.3276453  34.2092767  46.2231591   6.0976846
  34.7693065  46.3733945   5.5701829  40.9775538  39.0869791  14.4627579
  41.7910404  38.8154940  14.6232711  40.8170505  38.7877331  13.6587775
  41.0745487  39.0024717  14.3672985  38.2547700  29.7703448   7.4022967
  38.4689670  29.1314362   6.8486321  37.6381599  30.2149272   6.9730829
  38.1953029  29.7413592   7.2573398  39.6652368  42.6922196  -1.1522812
  39.2732160  42.3888911  -1.8699946  39.8205440  43.5291286  -1.3417858
  39.6305958  42.7706033  -1.2866315  40.4186788  31.3792513   8.3406274
  39.6063470  31.0718403   8.4219447  40.8776723  30.8991513   8.9048986
  40.3667173  31.2629005   8.4360868  39.8292043  39.2572185  -1.2116781
  39.4706698  39.4286828  -0.4352749  39.3430754  39.7185391  -1.7688783
  39.7050740  39.3511156  -1.1791512  37.5140296  32.7852585  13.1234977
  37.9839927  33.4094701  13.5102851  37.5602176  32.1169560  13.6828191
  37.5908172  32.7787265  13.2635048  36.7403803  25.4302572   5.6776633
  36.3535556  25.4551604   6.4590163  36.2536740  24.8644251   5.2251150
  36.6116312  25.3498323   5.7264537  40.9896782  40.1476081   9.7350419
  41.6276503  39.6536277   9.4012876  40.3470874  40.0753481   9.1502646
  40.9891009  40.0635090   9.5992774  42.7153782  31.9965227   4.3016335
  42.2881390  31.9091576   3.5464435  42.0779835  32.1043003   4.8871179
  42.5583390  31.9997887   4.2761777  36.4060945  22.3169558   7.9686893
  37.0354063  22.8529858   7.6907963  36.5746807  22.2246916   8.8200458
  36.5238739  22.3830920   8.0535421  36.2074859  27.1040752  10.2413304
  37.0348289  26.8325901  10.2971919  36.2282705  27.9001594  10.5977123
  36.3327710  27.1820506  10.3028487  41.0451039  40.8395889   6.3755776
  41.8343417  40.4884954   6.4957858  41.2194637  41.6532278   6.1132410
  41.1871321  40.9081746   6.3543644  30.7844349  34.2504615   3.4283565
  29.9432356  34.1508489   3.6362459  30.9934357  35.0200095   3.7797886
  30.6909042  34.3496658   3.5110880  34.5961014  32.1786014   2.6781163
  34.2924152  31.6242002   3.2791570  33.8940435  32.3578224   2.1909197
  34.4477224  32.1230797   2.6950868  32.6579365  39.3935735   7.3853260
  32.5499720  39.4037797   8.2515318  32.8675147  40.2190515   7.1958214
  32.6729476  39.5176810   7.4857352  43.1518551  25.4037210   0.4174960
  42.5392864  25.8907612   0.8028692  43.2482726  24.7280701   0.9612611
  43.0756448  25.3755519   0.5553818  30.6753157  36.6448377   4.8475198
  30.0841090  37.2857876   4.8178213  31.4374181  37.0685995   4.8206497
  30.7001418  36.8024216   4.8390345  31.0713780  27.8050375   5.5143216
  31.5315261  27.8789305   6.2518339  31.1169887  28.6031629   5.1643037
  31.1464335  27.9344522   5.5715972  32.7197130  28.4717070  10.0815243
  32.3282695  27.8250417  10.5171020  32.8882992  29.0628505  10.7009498
  32.6868040  28.4631338  10.2377949  46.7943579  36.4754147   5.8452476
  46.8526702  36.9240796   6.5912453  46.1610046  36.8852960   5.4082556
  46.7094874  36.6027882   5.8905025  40.4342673  42.0957689   2.2807222
  40.2362362  42.5848503   1.5863434  39.8130384  42.2998930   2.8591356
  40.3130238  42.1974227   2.2630446  37.4828528  29.4368059   2.5211386
  37.0088482  28.9109821   3.0316697  37.8546663  28.8897532   1.9526248
  37.4678417  29.2784056   2.5126533  27.8601558  31.4339566   7.8894932
  28.7227171  31.3335275   7.8032262  27.5293341  30.8534275   7.3280504
  27.9386754  31.3331192   7.7940338  43.7465258  34.4970435   3.9318167
  43.5063481  33.6576850   3.9360593  44.2257265  34.5770601   4.6558940
  43.7817442  34.3851834   4.0392969  45.7470445  31.2771892   1.8847426
  45.5080215  31.2367726   1.0468210  45.9104346  32.1243044   2.0113147
  45.7360749  31.3963977   1.7800908  31.2203344  30.2582015   4.5505350
  30.5956414  30.2700407   3.9431303  30.8848939  30.7342190   5.1996590
  31.0788836  30.3300532   4.5561919  27.9329019  38.3182475   5.9909114
  27.4028944  37.6274914   6.0404089  28.2054113  38.3092660   5.1621823
  27.8953742  38.2149607   5.8756530  38.1335265  35.7605719   5.9647486
  37.5192258  35.2163770   6.2596121  38.6502550  35.2469956   5.4853302
  38.1190927  35.6042129   5.9371714  37.3731562  36.8309989   3.6991784
  36.9459170  36.2059708   3.2657220  37.3656506  36.5484911   4.5250792
  37.3090703  36.6962770   3.7571612  30.4894089  31.8675163   6.7680218
  30.6487576  31.1118487   7.1731940  30.3086983  32.4166102   7.4220956
  30.4859448  31.8368976   6.9242924  38.4314392  24.0336398   7.3231008
  37.9354953  24.2300072   6.6322575  39.1883454  24.4329066   7.1519810
  38.4701217  24.1214132   7.1951145  35.7017272  27.7078744   3.9134318
  35.7259759  27.1738856   3.2247098  35.9528745  27.1996053   4.5759909
  35.7427190  27.5539648   3.9098963  34.1648207  36.0010302  11.3960357
  33.3143837  36.1382017  11.5318002  34.3276335  35.2674081  11.8408059
  34.0632070  35.9124403  11.4815957  33.4032957  32.9510072   5.5913962
  32.5724887  33.1183890   5.3849210  33.3484474  32.5746023   6.3762847
  33.2722372  32.9199803   5.6762490  31.2116741  26.4418965  11.2270373
  31.8369444  25.8981098  11.4999805  30.7567220  25.9613883  10.6578163
  31.2365001  26.2908446  11.1831966  44.7851789  34.6248252   6.3183021
  45.3769630  35.2645503   6.3501219  45.2210784  33.9271289   6.6075087
  44.9370220  34.6166602   6.3663853  36.6145179  39.0465624   6.9440914
  36.1070270  39.6001471   7.3881545  36.3171825  39.1073914   6.1259689
  36.4950064  39.1371936   6.8889371  38.7807361  27.4118944   5.7865577
  39.2062433  26.9591470   5.1749104  38.1664354  26.8579015   6.0630365
  38.7536007  27.2632920   5.7370603  39.2252959  42.9628882  -5.1255142
  38.5082269  42.7889744  -5.5907905  39.8759697  42.7281454  -5.6579656
  39.2154810  42.9024675  -5.2725924  41.8100931  31.8393471  -1.3813837
  41.1392121  32.3823173  -1.5100771  42.5040681  32.3088326  -1.6232142
  41.8129798  31.9891742  -1.4358309  35.8587664  43.9790183   3.8497921
  35.6353319  43.2209012   4.2181948  35.3697508  44.0088204   3.1278361
  35.7531113  43.8712407   3.7974662  41.9729058  28.2949354   1.5276536
  42.3256668  27.8679077   2.2022335  41.1143860  28.2100198   1.6577613
  41.8978503  28.2194095   1.6471547  39.9712324  31.5584723   5.4761378
  39.9510251  31.3768018   6.3296157  40.0191525  32.4296741   5.4520962
  39.9746965  31.6601261   5.5984673  37.9158654  38.1471915  11.4009855
  37.8754509  37.5021592  10.8155011  38.7281972  38.0908532  11.7135267
  38.0301807  38.0430882  11.3606804  34.5066121  44.1990641   1.3035006
  34.0926520  43.5364771   0.9138848  35.1913496  44.3468500   0.7830700
  34.5464493  44.1231299   1.1691503  37.8731415  43.3580726   2.0558623
  37.4747699  43.4682996   1.2879443  37.2582635  43.5662792   2.6385182
  37.7230305  43.4054294   2.0289922  43.4053118  23.4167766   2.4560849
  42.8983983  22.7096906   2.3882026  44.2020552  23.0860955   2.5861925
  43.4480357  23.2640918   2.4659844  33.6036362  31.7768851   7.9559613
  33.0915266  31.1690034   8.3144644  33.4315859  32.4925444   8.4233588
  33.5026000  31.7932151   8.0775836  28.4502077  30.2206427  10.6061974
  28.2804667  30.8807802  10.0610181  28.0068027  30.4312988  11.3274464
  28.3601411  30.3492409  10.6323604  45.6073258  37.9332693  -4.5598287
  45.9906864  38.6824049  -4.3300190  44.8117371  38.1798512  -4.8186298
  45.5467040  38.0802387  -4.5640713  37.4805433  29.6993096  10.3961868
  38.0376863  29.4706906   9.7640334  37.1566498  30.4598762  10.1197081
  37.5151843  29.7776933  10.2618365  25.3504142  33.1253292   5.8650464
  24.8030861  32.4553938   5.9831333  26.1396520  32.7583140   5.9293932
  25.3856325  32.9718279   5.8919165  35.1988550  32.7860749  11.3613875
  35.9499877  33.1012426  11.6753430  35.3911127  32.5839920  10.5347797
  35.3379964  32.8028131  11.2857271  42.0473840  28.9134316  -1.3962329
  42.0468067  28.7582972  -0.5378053  41.8430020  29.7597303  -1.4520944
  42.0173618  29.0154936  -1.2774390  39.7714692  33.5931817   2.2573878
  40.2668358  32.8754813   2.2177898  38.9614468  33.2902615   2.1428365
  39.7258586  33.4429464   2.2347603  41.8366511  36.3435505   4.9451006
  42.2621583  35.8209927   4.3921431  41.4723431  36.9416342   4.4239629
  41.8453114  36.3545732   4.7860016  31.4720591  44.6399722   3.7048352
  31.7867150  45.4536111   3.7126134  31.8814004  44.2549941   4.3730511
  31.5788689  44.7028425   3.8052444  38.4245111  40.0569769   1.2752164
  38.8956289  40.7710032   1.4442149  38.7605289  39.4568519   1.8112033
  38.5440226  40.0741234   1.3784540  40.5122095  41.6671083  13.4544236
  40.6219061  40.8779643  13.8100983  40.8412992  41.5777019  12.6518574
  40.5774501  41.5376936  13.3886627  35.3414606  24.8297240   8.2310259
  35.4742511  24.0328233   8.5591234  35.7259758  25.3563643   8.8108534
  35.4170934  24.7897157   8.3653762  39.0619057  39.8487703   8.0379857
  38.5140003  39.2245587   7.7699922  39.5232086  40.0381975   7.3223936
  39.0486266  39.7846754   7.8930288  41.8712921  27.9173058   5.4231049
  41.2875910  28.4182264   5.0108616  42.1917215  27.4102614   4.7895372
  41.8326097  27.9164893   5.2689556  33.0003052  24.8256415   6.4788152
  33.5447465  24.4847542   7.0692494  33.0539988  25.6841876   6.6209437
  33.0892172  24.9011674   6.5870026  28.8133611  38.5872831   3.3526960
  29.4178468  38.5468665   2.7240781  28.6060924  39.4343983   3.3831016
  28.8722508  38.7060833   3.2643077  38.6277383  40.8538776   4.5689198
  39.4475757  40.7101742   4.8305493  38.3471461  41.4784975   5.1105636
  38.7074127  40.9249128   4.6877137  24.0484893  37.5707448   3.2225883
  23.9509171  36.7603720   3.5315940  24.8313763  37.5499242   2.8372152
  24.1501030  37.4474539   3.2112746  48.2990718  47.5979279   2.2885005
  47.4428614  47.7587777   2.3394121  48.3458372  46.7271343   2.3090066
  48.1789830  47.4930081   2.2991071  51.6084435  53.8665804  11.8945461
  52.3151202  53.3717835  12.0232395  51.7972370  54.3074886  11.1648119
  51.7412341  53.8584155  11.8054506  51.1442539  49.6571323   4.9316656
  51.6898500  50.3356409   4.9910626  51.0859416  49.5158784   4.0718238
  51.2158454  49.7363324   4.8128717  37.4581659  53.1680675  -0.0562658
  37.2231843  52.3348328  -0.1630389  37.5967299  53.4485341  -0.8701457
  37.4437321  53.0864179  -0.1920303  39.7571746  45.3366406   2.8421650
  39.1376778  44.7459053   2.6731665  39.6555610  45.9277841   2.2085973
  39.6509422  45.3370488   2.7226639  46.8539642  47.0765948  -2.8245887
  47.5519806  47.2554075  -2.3324424  47.1691974  46.5536287  -3.4475498
  47.0034979  47.0259720  -2.8443877  39.4840879  48.8818688   5.0865219
  39.3599576  49.4681133   5.7215038  40.1359164  48.3878883   5.3877494
  39.5614528  48.8957492   5.2251148  44.5099220  52.0580405   4.3652730
  45.1548223  51.5652848   4.0463679  44.7500997  52.2005191   5.1918808
  44.6409805  52.0057847   4.4402263  47.0485311  54.9035310   4.0159623
  47.3308554  54.1086716   3.7946378  47.7771472  55.3815898   4.0364684
  47.1974875  54.8569907   3.9862638  45.0266505  42.4458344   1.2575388
  44.6969835  42.8969488   0.5879086  44.3511507  42.3674508   1.8048394
  44.8776942  42.5009480   1.2398611  52.2342913  38.4343867  -0.4975002
  51.9196354  39.1247346  -0.0654579  51.7169855  38.3788650  -1.1989501
  52.1107384  38.5278756  -0.5378053  39.0198983  58.0466346   1.2193548
  38.5366562  58.7716836   1.1953132  39.8322302  58.3442476   1.3303706
  39.0689731  58.1968700   1.2320828  45.0913137  56.8398527   3.8243363
  44.5740079  56.4805942   3.2204671  45.7887529  56.3160701   3.8349429
  45.1178718  56.7096215   3.7373622  48.7476729  57.2893341   9.7859536
  48.8360075  57.1019481  10.6337746  49.1766442  56.6430771   9.3864383
  48.8238832  57.1656349   9.8531287  46.3147189  56.5724501   8.7677198
  45.7518024  56.1597111   9.2916859  47.0768213  56.4977407   9.1870341
  46.3441638  56.5001901   8.9070198  43.2322459  40.5070633  -3.2601665
  43.9868427  40.8748950  -3.4984614  43.0549994  40.8810187  -2.4922485
  43.3176938  40.6168821  -3.1816776  41.8743181  58.5622522   1.3713828
  42.5763760  58.0474511   1.4286585  41.7940664  58.8896673   2.1760703
  41.9666941  58.5336748   1.4986620  56.5257358  46.6565073   4.7845875
  55.6885779  46.7267260   5.0193469  56.4945589  46.6589568   3.9120177
  56.3975640  46.6675300   4.6905423  42.9222087  48.7998109  10.4994243
  43.0942591  48.6904004  11.3479525  43.4591445  49.4452514  10.2625436
  43.0267091  48.8790111  10.5899340  41.5879524  42.9140952  -6.5623552
  41.4055097  43.1312833  -7.3882559  42.4505137  43.0279965  -6.5064937
  41.6884113  42.9630850  -6.6769065  41.1993956  54.7528874   0.8799436
  42.0382855  54.9851807   0.9273198  41.2305725  53.8833185   0.8106472
  41.3275674  54.6585821   0.8764081  41.8246659  55.1729749   5.1812742
  42.3644884  55.0300880   5.8516114  41.1416605  55.5726500   5.5496768
  41.8038813  55.2109420   5.3347164  47.2679243  39.9167363  -3.5274528
  47.9965404  39.7383317  -3.9736372  47.3574136  40.7585442  -3.3167350
  47.3885905  40.0151241  -3.5621010  48.8596789  56.7202360  12.4503319
  49.6437205  56.8333208  12.8159062  48.6593383  55.8943497  12.6462005
  48.9462814  56.6149079  12.5337705  37.2283804  51.3930040   5.3347163
  36.9622219  50.5769157   5.4938154  37.2422368  51.4383196   4.4642679
  37.1908526  51.2786945   5.2300645  54.2065198  41.7207855   3.3689597
  54.8491106  41.7905960   3.9551512  54.4588219  41.0537078   2.8669139
  54.3387330  41.6334204   3.3816876  41.9782410  44.9308418   7.9814171
  41.2854207  44.4605398   8.2274903  42.5942738  44.7046723   8.5555878
  41.9666940  44.8275550   8.1023324  49.0167182  58.6312462   6.0969775
  48.2182428  58.3911962   6.3543644  49.4653193  58.6826855   6.8436823
  48.9641793  58.6034853   6.2454699  37.6377218  52.1788819   2.6158908
  37.4552791  52.1535705   1.7631200  38.3726887  52.6487757   2.6547816
  37.7191282  52.2450182   2.4956826  40.7022969  48.8973822   9.1241016
  41.4262942  48.8826853   9.6105911  40.8039106  49.6069178   8.6262984
  40.8241178  48.9998526   9.1219803  48.0767919  52.3772907  13.9889963
  47.2840900  52.6916419  14.1742583  48.1916846  52.5924375  13.1510748
  47.9763329  52.4556744  13.8928298  49.0051712  52.2793111   8.9275260
  49.5790573  51.6420355   9.0823824  48.9266515  52.2797193   8.0584918
  49.0784946  52.1858222   8.8221671  37.6048128  49.0582320   2.7657974
  38.1821631  48.9218771   3.4050220  36.9062190  48.6018104   3.0203559
  37.5869149  48.9704586   2.8980264  44.3615430  50.7116376   0.9796457
  44.1034675  49.8788111   0.9527757  44.4163913  50.9373989   0.1388958
  44.3315208  50.6214147   0.8516594  49.4416480  42.8144827   1.0800550
  48.7372807  42.3254012   1.2384469  49.4901455  42.8267301   0.2088995
  49.3446532  42.7434474   0.9739890  43.3350142  48.2654138   1.4661352
  42.7599734  48.4246307   2.1025313  42.9585819  47.6289547   1.0029803
  43.1952955  48.1951951   1.4915911  47.0023431  46.7377488   6.3253731
  46.6137864  46.3131705   5.6705922  46.3378129  46.9859637   6.8330757
  46.8470359  46.7116209   6.3041599  33.0806961  47.9094213  -0.5194207
  33.1667213  47.5326081   0.2619323  33.7082759  47.5354659  -0.9974249
  33.1863512  47.7979695  -0.4748730  50.8249793  40.4352116   3.8377715
  51.2060304  39.7530287   4.2245589  50.0213077  40.1461718   3.6553379
  50.7626254  40.2919165   3.8681771  54.3271859  53.6502088   8.9360113
  54.0910497  52.8190153   8.8172174  54.9715088  53.5987695   9.5214957
  54.3866530  53.5199776   9.0046007  38.6682920  56.6785946   3.5337153
  38.7087065  56.9500797   2.7056933  39.2277444  57.2027854   3.9494941
  38.7566266  56.7961701   3.4729042  55.3508280  53.4346537   4.9988408
  55.0454097  54.1674594   5.3601723  54.6314496  53.0284467   4.7181194
  55.1995622  53.4828270   5.0101545  42.3373530  41.3296836  -0.6813480
  41.4695955  41.4019436  -0.6155871  42.6248734  42.1318915  -0.4925505
  42.2513278  41.4590983  -0.6438714  51.4606419  41.4774695   7.6497841
  52.2060011  41.2884506   7.2361267  51.0443723  42.0032933   7.0911698
  51.5091393  41.5276841   7.5062415  58.8368690  48.8483924   2.6003346
  59.3876611  48.2151993   2.8400438  58.8212805  49.3799317   3.2918851
  58.9153886  48.8332872   2.7382205  45.4891080  52.6822521   7.1463240
  44.9902774  53.3938289   7.2248128  46.2991305  53.0023188   7.1081402
  45.5347187  52.8349370   7.1519808  41.7519198  51.9445474   1.3925961
  41.4632447  51.3182945   1.9271688  42.6202546  51.8865762   1.4590641
  41.8379450  51.8433018   1.4816915  52.5397096  47.0880258   1.7107943
  52.1961862  46.3670593   2.0615192  52.6390138  46.8794109   0.8686301
  52.5039139  46.9504461   1.6379623  44.4158138  45.5403566  12.4425538
  43.6057914  45.8461345  12.3315380  44.8932825  46.2609148  12.5578122
  44.3661617  45.6918167  12.4432609  43.2749698  54.7549287   2.6908441
  42.7530452  54.8949578   3.3760306  43.6623718  53.9959951   2.8810558
  43.2553399  54.6634810   2.8209518  40.2640882  44.8055095  -3.2396604
  39.9765678  44.4356366  -3.9764657  40.9511350  45.2749951  -3.5012899
  40.3229779  44.8202065  -3.3881528  43.0994554  48.6708044  -1.7929199
  43.8217206  48.8349202  -2.2525393  42.6202546  49.3917708  -1.8989860
  43.1358284  48.8006273  -1.8763585  51.0588061  45.0071842   3.5867485
  50.2199162  45.0333121   3.3505749  51.1292428  45.6542578   4.1672832
  50.9456455  45.1067968   3.6376602  40.7502170  51.0766116   7.3124940
  41.2623267  51.3550369   6.6633700  40.4638513  51.8155410   7.6787753
  40.7837033  51.2268470   7.2714818  49.5057339  41.9057219  -1.6804899
  50.2083692  41.7064968  -2.1584940  49.2401528  41.1333162  -1.3736055
  49.5703972  41.7620185  -1.7059457  37.8369077  45.5836308  -2.3911323
  37.9385213  46.3862469  -2.0630348  38.6324963  45.3823644  -2.6888243
  37.9696982  45.6722207  -2.3875968  44.2685896  43.1692505   7.3725982
  44.0769093  43.1847639   8.2225405  45.1184492  43.3656179   7.3492637
  44.3661618  43.2006856   7.4949277  38.6532809  45.6983486   5.3509798
  38.5118301  44.8467427   5.4754306  38.9373372  45.7412147   4.5272004
  38.6740655  45.5783236   5.2477423  48.8071401  47.5350576  -0.5045713
  48.5606115  47.4546327   0.3291076  49.1356524  46.7504044  -0.6983186
  48.8192645  47.4076842  -0.4098190  52.7019450  54.2433936   3.2841068
  52.5633809  54.9414981   3.7889810  51.9219448  54.0882592   2.9277250
  52.5662677  54.3234102   3.3067342  51.0397535  50.5430311   9.5363450
  51.0345574  49.6710127   9.5405876  51.7458529  50.7418480   9.0632905
  51.1442539  50.4434185   9.4670485  44.7668428  50.2707295   8.9077270
  44.9111804  50.8508503   8.2720380  45.1144077  50.6483592   9.6127124
  44.8395890  50.4127999   8.9176265  46.9388346  49.4697463   6.6902401
  46.1911660  49.6628478   6.2850679  47.0929871  48.6442683   6.4526523
  46.8510773  49.3762575   6.5947807  43.8396183  58.4610067   5.7738297
  43.9885747  57.9012983   5.1211701  44.6196185  58.5402068   6.1570815
  43.9770277  58.3895632   5.7335246  46.3649484  58.6324710   7.0522787
  46.2893155  57.9633520   7.6073576  46.2939343  59.3342498   7.5663454
  46.3430091  58.6369617   7.2099636  47.1790123  43.3648014   7.5797805
  47.6362737  44.0971988   7.7070597  47.2546452  42.9414479   8.3385061
  47.2581093  43.4105252   7.7098882  39.4223114  43.6113834   8.6687249
  38.8865303  42.9994192   8.9848016  39.4840879  44.1861970   9.3220915
  39.3518747  43.6060761   8.8122676  51.6517449  36.5437889   1.4491648
  51.7701017  37.0014352   0.7158951  51.4779624  35.7383150   1.1627866
  51.6436620  36.4931661   1.2992582  45.0572501  45.3550118   4.4239629
  44.2668575  45.1741578   4.7456965  45.4533123  44.5777070   4.4069924
  44.9989377  45.2137579   4.4692177  50.4416187  52.9892548   2.1499075
  49.7661189  52.7577780   2.6512462  50.4508563  52.3813731   1.5241180
  50.3434692  52.8651473   2.1315227  47.5710331  47.8310377   8.9063128
  47.5069472  48.6920333   8.7783265  47.7107519  47.5142370   8.1058679
  47.5825801  47.9110544   8.7691341  46.2529425  50.5242516   3.0479331
  45.8291674  50.7247015   2.3118349  46.0774280  49.6771364   3.1603631
  46.1640305  50.4291298   2.9553021  45.7541118  62.0393029   5.5100788
  46.2437049  61.3403819   5.3276453  45.1825351  61.7416899   6.0976846
  45.7425648  61.8919253   5.5701829  41.5411870  51.0194568  -1.5192697
  41.6976489  50.9541371  -0.6636704  41.8812463  51.7943120  -1.7314017
  41.6145105  51.1243766  -1.4238102  51.9508122  54.6055099  14.4627579
  52.7642987  54.3340248  14.6232711  51.7903088  54.3062639  13.6587775
  52.0478070  54.5210025  14.3672985  49.2280284  45.2888756   7.4022967
  49.4422253  44.6499670   6.8486321  48.6114183  45.7334580   6.9730829
  49.1685613  45.2598900   7.2573398  38.1146131  48.2029518  -1.2031929
  38.4945096  48.6214063  -1.8671662  37.5401496  48.7842974  -0.8963086
  38.0857456  48.3507377  -1.2555188  51.3919372  46.8977821   8.3406274
  50.5796054  46.5903711   8.4219447  51.8509306  46.4176821   8.9048986
  51.3399757  46.7814313   8.4360868  48.6195012  38.3988692   2.3910310
  47.7488570  38.3727413   2.3443619  48.8735354  38.2265884   1.5736156
  48.5288573  38.3698835   2.2630447  48.4872879  48.3037892  13.1234977
  48.9572510  48.9280009  13.5102851  48.5334759  47.6354868  13.6828191
  48.5640755  48.2972573  13.2635048  45.6444153  40.4094920   3.8483780
  45.1282642  39.7175111   3.9735359  45.0838082  41.0765697   3.7946379
  45.4850666  40.4058178   3.8589846  47.7136386  40.9487880   5.6776633
  47.3268140  40.9736911   6.4590163  47.2269324  40.3829559   5.2251150
  47.5848895  40.8683631   5.7264537  51.9629366  55.6661389   9.7350419
  52.6009086  55.1721585   9.4012876  51.3203457  55.5938789   9.1502646
  51.9623592  55.5820397   9.5992774  53.6886366  47.5150535   4.3016335
  53.2613974  47.4276884   3.5464435  53.0512419  47.6228310   4.8871179
  53.5315973  47.5183195   4.2761777  47.3793528  37.8354865   7.9686893
  48.0086646  38.3715166   7.6907963  47.5479391  37.7432224   8.8200458
  47.4971323  37.9016228   8.0535421  47.1807443  42.6226060  10.2413304
  48.0080872  42.3511209  10.2971919  47.2015289  43.4186902  10.5977123
  47.3060293  42.7005814  10.3028487  52.0183622  56.3581197   6.3755776
  52.8076001  56.0070262   6.4957858  52.1927220  57.1717586   6.1132410
  52.1603904  56.4267054   6.3543644  41.7576933  49.7689923   3.4283565
  40.9164939  49.6693797   3.6362459  41.9666941  50.5385403   3.7797886
  41.6641625  49.8681966   3.5110880  39.2352500  47.3909460   1.2568316
  38.8409198  47.4652472   0.4818425  38.6792617  47.7767406   1.8076677
  39.0955312  47.4591235   1.2235976  50.8717447  40.3690754   0.9372195
  51.0767040  40.3013062   1.7829192  50.5443871  41.1749575   0.8693372
  50.8532694  40.4776694   1.0531850  45.5693598  47.6971322   2.6781163
  45.2656735  47.1427310   3.2791570  44.8673018  47.8763532   2.1909197
  45.4209808  47.6416104   2.6950868  44.6259695  45.0071842  -2.7574136
  44.9019429  44.2890754  -3.1696568  45.2258364  45.6056762  -2.9653029
  44.7552959  44.9892213  -2.8493374  43.6311949  54.9121043   7.3853260
  43.5232304  54.9223105   8.2515318  43.8407730  55.7375823   7.1958214
  43.6462060  55.0362118   7.4857352  54.1251134  40.9222518   0.4174960
  53.5125448  41.4092920   0.8028692  54.2215309  40.2466009   0.9612611
  54.0489032  40.8940827   0.5553818  48.1270215  42.6785359  -4.4827541
  48.5813962  42.8495920  -3.7579696  48.6010261  42.0653470  -4.8829765
  48.2638535  42.6136245  -4.4353779  41.6485741  52.1633685   4.8475198
  41.0573674  52.8043183   4.8178213  42.4106764  52.5871303   4.8206497
  41.6734001  52.3209524   4.8390345  42.0446364  43.3235683   5.5143216
  42.5047845  43.3974612   6.2518339  42.0902470  44.1216937   5.1643037
  42.1196919  43.4529830   5.5715972  43.6929713  43.9902378  10.0815243
  43.3015278  43.3435725  10.5171020  43.8615576  44.5813813  10.7009498
  43.6600624  43.9816646  10.2377949  57.7676162  51.9939455   5.8452476
  57.8259286  52.4426104   6.5912453  57.1342630  52.4038268   5.4082556
  57.6827457  52.1213190   5.8905025  47.3862811  41.1778153   1.6549328
  46.5398856  41.3500960   1.5290678  47.3833943  40.3727496   1.9915156
  47.2609961  41.0839182   1.6860455  48.4561111  44.9553367   2.5211386
  47.9821065  44.4295129   3.0316697  48.8279247  44.4082840   1.9526248
  48.4411000  44.7969364   2.5126533  38.8334141  46.9524874   7.8894932
  39.6959754  46.8520583   7.8032262  38.5025924  46.3719583   7.3280504
  38.9119338  46.8516500   7.7940338  54.7197842  50.0155743   3.9318167
  54.4796065  49.1762158   3.9360593  55.1989849  50.0955909   4.6558940
  54.7550025  49.9037142   4.0392969  56.7203029  46.7957200   1.8847426
  56.4812799  46.7553034   1.0468210  56.8836930  47.6428352   2.0113147
  56.7093332  46.9149285   1.7800908  53.3249059  51.1807149   7.8152471
  54.0483258  50.7279676   7.6363491  53.0599021  51.4611815   7.0324799
  53.3930332  51.1558118   7.6731186  42.1935927  45.7767323   4.5505350
  41.5688997  45.7885715   3.9431303  41.8581522  46.2527498   5.1996590
  42.0521419  45.8485840   4.5561919  38.9061603  53.8367783   5.9909114
  38.3761527  53.1460222   6.0404089  39.1786696  53.8277968   5.1621823
  38.8686325  53.7334915   5.8756530  49.1067848  51.2791027   5.9647486
  48.4924841  50.7349078   6.2596121  49.6235133  50.7655264   5.4853302
  49.0923511  51.1227436   5.9371714  48.3464146  52.3495297   3.6991784
  47.9191754  51.7245016   3.2657220  48.3389090  52.0670219   4.5250792
  48.2823287  52.2148078   3.7571612  41.4626673  47.3860470   6.7680218
  41.6220159  46.6303795   7.1731940  41.2819566  47.9351410   7.4220956
  41.4592032  47.3554284   6.9242924  49.4046976  39.5521706   7.3231008
  48.9087537  39.7485380   6.6322575  50.1616038  39.9514374   7.1519810
  49.4433800  39.6399440   7.1951145  46.6749855  43.2264052   3.9134318
  46.6992342  42.6924164   3.2247098  46.9261329  42.7181361   4.5759909
  46.7159774  43.0724956   3.9098963  34.1857445  50.5095547   3.3477463
  34.0800894  50.4642391   2.4829547  33.4357665  50.8549327   3.6291747
  34.0593048  50.5536455   3.2614792  42.9551177  41.9534870   3.2940063
  42.9949549  42.4544077   4.0074770  42.1300842  42.0445264   3.0245986
  42.8390703  42.0416687   3.3590601  45.1380790  51.5195610  11.3960357
  44.2876421  51.6567324  11.5318002  45.3008918  50.7859388  11.8408059
  45.0364654  51.4309711  11.4815957  44.3765541  48.4695380   5.5913962
  43.5457471  48.6369198   5.3849210  44.3217058  48.0931331   6.3762847
  44.2454956  48.4385111   5.6762490  42.1849324  41.9604273  11.2270373
  42.8102028  41.4166406  11.4999805  41.7299804  41.4799191  10.6578163
  42.2097585  41.8093754  11.1831966  42.7501585  46.7450972  -3.8795920
  42.8904546  47.2423436  -3.1767279  43.2484117  46.0437266  -3.7381707
  42.8442666  46.7152950  -3.7544341  55.7584373  50.1433560   6.3183021
  56.3502213  50.7830811   6.3501219  56.1943367  49.4456597   6.6075087
  55.9102804  50.1351910   6.3663853  47.5877763  54.5650932   6.9440914
  47.0802854  55.1186779   7.3881545  47.2904409  54.6259222   6.1259689
  47.4682648  54.6557244   6.8889371  49.7539945  42.9304252   5.7865577
  50.1795016  42.4776778   5.1749104  49.1396938  42.3764323   6.0630365
  49.7268590  42.7818228   5.7370603  39.2854795  49.8085923  -3.2813798
  39.7947024  50.4050431  -2.9002492  39.7589067  49.5411897  -3.9637378
  39.4298171  49.8571739  -3.3259275  48.1934168  39.4019352  -0.8043846
  47.5502486  39.2516998  -0.2358707  47.8533575  39.1561697  -1.5694741
  48.0479245  39.3431474  -0.8340830  52.9461642  43.8134662   1.5276536
  53.2989252  43.3864385   2.2022335  52.0876443  43.7285506   1.6577613
  52.8711086  43.7379403   1.6471547  41.6445327  46.4442182  -0.4140617
  40.9257316  46.8606315  -0.1467754  42.0157689  47.0096421  -0.9648979
  41.5937258  46.5891463  -0.4557810  50.9444907  47.0770031   5.4761378
  50.9242835  46.8953326   6.3296157  50.9924108  47.9482049   5.4520962
  50.9479549  47.1786569   5.5984673  48.8891237  53.6657223  11.4009855
  48.8487092  53.0206900  10.8155011  49.7014556  53.6093840  11.7135267
  49.0034391  53.5616190  11.3606804  54.3785702  38.9353074   2.4560849
  53.8716566  38.2282214   2.3882026  55.1753135  38.6046263   2.5861925
  54.4212941  38.7826225   2.4659844  50.2949718  45.4419686  -1.6465488
  50.0663411  45.4652388  -2.4887129  50.5547794  44.6177153  -1.5270477
  50.2995906  45.3235766  -1.7540290  44.5768946  47.2954159   7.9559613
  44.0647849  46.6875342   8.3144644  44.4048442  48.0110752   8.4233588
  44.4758583  47.3117459   8.0775836  39.4234661  45.7391735  10.6061974
  39.2537251  46.3993110  10.0610181  38.9800611  45.9498296  11.3274464
  39.3333994  45.8677717  10.6323604  43.3494480  43.9796233  -0.3511292
  43.8251846  44.3413312  -0.9861111  42.8483080  44.6352700  -0.0711149
  43.3459839  44.1290421  -0.4034551  48.4538016  45.2178404  10.3961868
  49.0109447  44.9892214   9.7640334  48.1299081  45.9784070  10.1197081
  48.4884427  45.2962241  10.2618365  36.3236725  48.6438600   5.8650464
  35.7763445  47.9739246   5.9831333  37.1129103  48.2768448   5.9293932
  36.3588909  48.4903587   5.8919165  46.1721134  48.3046057  11.3613875
  46.9232461  48.6197734  11.6753430  46.3643710  48.1025228  10.5347797
  46.3112548  48.3213439  11.2857271  53.0206424  44.4319624  -1.3962329
  53.0200650  44.2768280  -0.5378053  52.8162604  45.2782611  -1.4520944
  52.9906202  44.5340244  -1.2774390  35.0823695  47.8559408   3.0196487
  34.9045456  47.4036017   3.7451403  34.7942717  48.6585569   3.2034965
  35.0136648  47.9081966   3.1539990  50.7447276  49.1117125   2.2573878
  51.2400941  48.3940120   2.2177898  49.9347052  48.8087923   2.1428365
  50.6991169  48.9614772   2.2347603  36.8196165  50.3887132   0.1318246
  35.9541684  50.3772822   0.0201018  36.9194981  50.2017355   0.9789386
  36.7070332  50.3593193   0.2407191  52.8099095  51.8620813   4.9451006
  53.2354166  51.3395235   4.3921431  52.4456015  52.4601650   4.4239629
  52.8185697  51.8731040   4.7860016  42.4453175  60.1585030   3.7048352
  42.7599734  60.9721419   3.7126134  42.8546588  59.7735249   4.3730511
  42.5521273  60.2213733   3.8052444  51.4854679  57.1856391  13.4544236
  51.5951644  56.3964951  13.8100983  51.8145575  57.0962327  12.6518574
  51.5507085  57.0562243  13.3886627  46.3147189  40.3482548   8.2310259
  46.4475095  39.5513541   8.5591234  46.6992342  40.8748951   8.8108534
  46.3903518  40.3082464   8.3653762  50.0351641  55.3673011   8.0379857
  49.4872586  54.7430895   7.7699922  50.4964669  55.5567283   7.3223936
  50.0218850  55.3032062   7.8930288  49.3879544  37.2712874   4.8291352
  48.5825508  37.1610604   5.1459190  49.2586280  37.3725330   3.9721218
  49.2499677  37.2696544   4.7499392  52.8445505  43.4358366   5.4231049
  52.2608494  43.9367572   5.0108616  53.1649799  42.9287922   4.7895372
  52.8058680  43.4350201   5.2689556  45.3840304  42.3498961  -4.3010276
  46.2055998  42.5197273  -4.5428581  44.9209955  42.5046222  -5.0243979
  45.4371466  42.3980694  -4.4438632  43.9735636  40.3441723   6.4788152
  44.5180049  40.0032850   7.0692494  44.0272572  41.2027184   6.6209437
  44.0624755  40.4196982   6.5870026  39.7866195  54.1058139   3.3526960
  40.3911052  54.0653973   2.7240781  39.5793507  54.9529291   3.3831016
  39.8455092  54.2246141   3.2643077  49.6009967  56.3724084   4.5689198
  50.4208341  56.2287050   4.8305493  49.3204044  56.9970283   5.1105636
  49.6806710  56.4434436   4.6877137  35.0217477  53.0892756   3.2225883
  34.9241755  52.2789028   3.5315940  35.8046347  53.0684550   2.8372152
  35.1233613  52.9659847   3.2112746  53.8954671  64.3183417  10.4994243
  54.0675174  64.2089312  11.3479525  54.4324028  64.9637822  10.2625436
  53.9999675  64.3975419  10.5899340  52.9514994  60.4493726   7.9814171
  52.2586791  59.9790706   8.2274903  53.5675321  60.2232031   8.5555878
  52.9399524  60.3460858   8.1023324  55.7574217  58.4591623  13.7040323
  55.4427658  59.2291185  13.4409886  55.4364149  57.8961879  13.1192550
  55.6633136  58.4901891  13.5781673  55.3890722  61.0588874  12.4425538
  54.5790498  61.3646653  12.3315380  55.8665409  61.7794456  12.5578122
  55.3394201  61.2103475  12.4432609  55.2418479  58.6877813   7.3725982
  55.0501676  58.7032947   8.2225405  56.0917075  58.8841487   7.3492637
  55.3394201  58.7192164   7.4949277  50.3955698  59.1299142   8.6687249
  49.8597887  58.5179500   8.9848016  50.4573462  59.7047278   9.3220915
  50.3251330  59.1246069   8.8122676  59.4605463  63.8223200  13.1234977
  59.9305094  64.4465317  13.5102851  59.5067343  63.1540176  13.6828191
  59.5373339  63.8157881  13.2635048  58.3526112  53.3540173   7.9686893
  58.9819230  53.8900473   7.6907963  58.5211974  53.2617532   8.8200458
  58.4703906  53.4201536   8.0535421  58.1540027  58.1411368  10.2413304
  58.9813456  57.8696517  10.2971919  58.1747873  58.9372210  10.5977123
  58.2792877  58.2191122  10.3028487  54.6662297  59.5087686  10.0815243
  54.2747862  58.8621033  10.5171020  54.8348160  60.0999121  10.7009498
  54.6333207  59.5001954  10.2377949  49.8066725  62.4710182   7.8894932
  50.6692338  62.3705891   7.8032262  49.4758508  61.8904891   7.3280504
  49.8851921  62.3701808   7.7940338  53.1581908  57.4789581  11.2270373
  53.7834611  56.9351714  11.4999805  52.7032388  56.9984498  10.6578163
  53.1830168  57.3279062  11.1831966  50.3967244  61.2577043  10.6061974
  50.2269835  61.9178417  10.0610181  49.9533194  61.4683604  11.3274464
  50.3066578  61.3863025  10.6323604  59.4270600  60.7363712  10.3961868
  59.9842030  60.5077521   9.7640334  59.1031665  61.4969378  10.1197081
  59.4617010  60.8147549  10.2618365  57.1453717  63.8231365  11.3613875
  57.8965044  64.1383042  11.6753430  57.3376294  63.6210536  10.5347797
  57.2845131  63.8398747  11.2857271  57.2879773  55.8667856   8.2310259
  57.4207678  55.0698849   8.5591234  57.6724925  56.3934259   8.8108534
  57.3636102  55.8267772   8.3653762  54.9468219  55.8627031   6.4788152
  55.4912632  55.5218158   7.0692494  55.0005155  56.7212492   6.6209437
  55.0357339  55.9382290   6.5870026  51.3035259  30.8043936  -1.1714493
  52.0102026  30.3095966  -1.0427558  51.4923194  31.2453017  -1.9011835
  51.4363165  30.7962286  -1.2605447  48.4427553  34.2271472  -3.2800417
  48.5310899  34.0397613  -2.4322207  48.8717266  33.5808902  -3.6795570
  48.5189656  34.1034480  -3.2128666  46.0098013  33.5102632  -4.2982755
  45.4468848  33.0975242  -3.7743094  46.7719037  33.4355538  -3.8789612
  46.0392462  33.4380033  -4.1589755  48.5547613  33.6580491  -0.6156634
  49.3388029  33.7711339  -0.2500892  48.3544207  32.8321628  -0.4197948
  48.6413638  33.5527211  -0.5322248  48.7118006  35.5690593  -6.9690178
  47.9133252  35.3290093  -6.7116309  49.1604017  35.6204986  -6.2223130
  48.6592617  35.5412984  -6.8205254  47.7718743  29.3151038   0.9230010
  46.9791724  29.6294550   1.1082630  47.8867670  29.5302507   0.0850795
  47.6714153  29.3934875   0.8268345  54.0222683  30.5880219  -4.1299840
  53.7861321  29.7568284  -4.2487779  54.6665912  30.5365827  -3.5444996
  54.0817354  30.4577907  -4.0613946  50.7348359  27.4808442  -3.5296504
  50.7296397  26.6088259  -3.5254077  51.4409353  27.6796611  -4.0027048
  50.8393363  27.3812316  -3.5989468  46.0600308  35.5702841  -6.0137166
  45.9843979  34.9011651  -5.4586377  45.9890167  36.2720629  -5.4996500
  46.0380915  35.5747748  -5.8560318  45.4491942  38.9771160  -7.5559165
  45.9387873  38.2781950  -7.7383500  44.8776175  38.6795030  -6.9683108
  45.4376472  38.8297384  -7.4958124  51.6458946  31.5433230   1.3967626
  52.4593811  31.2718379   1.5572758  51.4853912  31.2440770   0.5927822
  51.7428894  31.4588156   1.3013032  48.1823703  25.2416024   0.0575023
  48.6523334  25.8658140   0.4442897  48.2285583  24.5732999   0.6168238
  48.2591579  25.2350704   0.1975095  51.6580190  32.6039520  -3.3309534
  52.2959910  32.1099716  -3.6647078  51.0154281  32.5316921  -3.9157307
  51.6574416  32.5198529  -3.4667179  51.7134446  33.2959328  -6.6904177
  52.5026825  32.9448393  -6.5702095  51.8878044  34.1095717  -6.9527543
  51.8554728  33.3645186  -6.7116309  44.8331614  28.4573741  -1.6699596
  43.9827245  28.5945456  -1.5341951  44.9959742  27.7237520  -1.2251894
  44.7315478  28.3687843  -1.5843997  48.5842061  30.6035354  -1.6650098
  48.5437916  29.9585031  -2.2504942  49.3965380  30.5471971  -1.3524686
  48.6985215  30.4994321  -1.7053149  51.1805503  34.1234522   0.3884283
  51.2902468  33.3343082   0.7441030  51.5096399  34.0340458  -0.4141379
  51.2457909  33.9940375   0.3226674  49.7302464  32.3051143  -5.0280097
  49.1823410  31.6809026  -5.2960031  50.1915493  32.4945415  -5.7436017
  49.7169674  32.2410193  -5.1729666  53.5905495  41.2561548  -2.5665710
  53.7625998  41.1467443  -1.7180428  54.1274852  41.9015954  -2.8034518
  53.6950499  41.3353550  -2.4760613  52.6465818  37.3871857  -5.0845782
  51.9537615  36.9168837  -4.8385051  53.2626145  37.1610162  -4.5104075
  52.6350348  37.2838989  -4.9636630  51.3706377  41.3537261  -3.9418937
  52.0946349  41.3390292  -3.4554042  51.4722513  42.0632617  -4.4396969
  51.4924586  41.4561965  -3.9440150  55.4525041  35.3969754   0.6380370
  55.1378482  36.1669316   0.3749933  55.1314973  34.8340010   0.0532597
  55.3583960  35.4280022   0.5121720  55.0841546  37.9967005  -0.6234415
  54.2741322  38.3024784  -0.7344573  55.5616233  38.7172587  -0.5081831
  55.0345025  38.1481606  -0.6227344  54.9369303  35.6255944  -5.6933971
  54.7452500  35.6411078  -4.8434548  55.7867899  35.8219618  -5.7167316
  55.0345025  35.6570295  -5.5710676  50.0906521  36.0677273  -4.3972704
  49.5548711  35.4557631  -4.0811937  50.1524286  36.6425409  -3.7439038
  50.0202154  36.0624200  -4.2537278  59.1556287  40.7601332   0.0575023
  59.6255918  41.3843448   0.4442897  59.2018167  40.0918307   0.6168238
  59.2324163  40.7536012   0.1975095  58.0476936  30.2918305  -5.0973060
  58.6770054  30.8278605  -5.3751990  58.2162798  30.1995664  -4.2459495
  58.1654730  30.3579667  -5.0124532  57.8490851  35.0789499  -2.8246649
  58.6764280  34.8074648  -2.7688034  57.8698697  35.8750341  -2.4682831
  57.9743701  35.1569254  -2.7631466  54.3613121  36.4465817  -2.9844711
  53.9698686  35.7999164  -2.5488933  54.5298983  37.0377252  -2.3650455
  54.3284031  36.4380085  -2.8282005  49.5017549  39.4088313  -5.1765021
  50.3643162  39.3084022  -5.2627692  49.1709332  38.8283022  -5.7379449
  49.5802745  39.3079940  -5.2719616  52.8532732  34.4167712  -1.8389581
  53.4785435  33.8729845  -1.5660148  52.3983212  33.9362630  -2.4081790
  52.8780992  34.2657193  -1.8827987  50.0918068  38.1955174  -2.4597979
  49.9220659  38.8556549  -3.0049772  49.6484018  38.4061735  -1.7385490
  50.0017402  38.3241156  -2.4336349  59.1221424  37.6741843  -2.6698085
  59.6792854  37.4455653  -3.3019620  58.7982489  38.4347509  -2.9462873
  59.1567834  37.7525680  -2.8041588  56.8404541  40.7609496  -1.7046078
  57.5915868  41.0761173  -1.3906524  57.0327118  40.5588667  -2.5312156
  56.9795955  40.7776878  -1.7802682  56.9830597  32.8045987  -4.8349694
  57.1158502  32.0076980  -4.5068719  57.3675749  33.3312390  -4.2551419
  57.0586926  32.7645904  -4.7006192  54.6419043  32.8005162  -6.5871801
  55.1863456  32.4596289  -5.9967459  54.6955979  33.6590623  -6.4450516
  54.7308163  32.8760421  -6.4789927   1.2292001  63.3243405  23.3917341
   1.1986005  64.1788041  23.5635610   1.8273350  63.0238697  23.9503485
   1.3129159  63.4059901  23.4992143   3.1604367  68.8234450  26.8480720
   2.3302070  69.0345093  27.0114137   3.1113620  67.9971504  26.5723004
   3.0311103  68.7324056  26.8318086   2.6558326  61.4704850  30.6431142
   1.8186747  61.5407037  30.8778736   2.6246557  61.4729345  29.7705444
   2.5276608  61.4815077  30.5490690   3.5513029  66.2114724  25.8765073
   4.2129463  65.6505393  25.7760982   2.9104441  65.7166755  26.2017764
   3.5541896  66.0551133  25.9097413   1.6668316  66.0681772  23.4546666
   1.9976533  66.6009413  22.8486761   2.2401404  66.1220660  24.1108617
   1.8001995  66.1551341  23.4624448   2.7747668  61.3092269  24.9586827
   2.5184233  60.4972211  24.7684710   3.6176982  61.3169836  24.7317015
   2.8613693  61.1904267  24.8971645   1.4809248  68.2486314  30.8573675
   1.1755065  68.9814371  31.2186990   0.7615463  67.8424244  30.5766461
   1.3296590  68.2968047  30.8686812   7.1811040  64.8879315  30.1842019
   7.1135540  64.9075274  29.3144605   7.1666702  65.7309642  30.4097689
   7.1689796  65.0153049  30.0894496   4.9669657  63.6623701  28.4588613
   5.5177579  63.0291770  28.6985705   4.9513772  64.1939094  29.1504117
   5.0454853  63.6472649  28.5967471   1.0646553  65.0279606  26.7313994
   0.9780527  65.1835032  27.5848773   0.6097032  65.6717682  26.3573399
   0.9849809  65.1455361  26.8021101   3.8977130  66.8079232  31.7037743
   3.9560253  67.2565881  32.4497720   3.2643597  67.2178045  31.2667823
   3.8128425  66.9352967  31.7490291   0.8498809  64.8295520  29.7903433
   0.6097032  63.9901935  29.7945860   1.3290816  64.9095686  30.5144207
   0.8850993  64.7176919  29.8978236   2.8503996  61.6096977  27.7432692
   2.6113766  61.5692811  26.9053477   3.0137898  62.4568129  27.8698414
   2.8394300  61.7289062  27.6386174   1.8885340  64.9573337  32.1768287
   2.4803181  65.5970588  32.2086485   2.3244335  64.2596374  32.4660354
   2.0403772  64.9491687  32.2249120   9.3376464  68.7668952  25.3610265
   9.0229905  69.4572431  25.7930688   8.8203406  68.7113735  24.6595766
   9.2140935  68.8603841  25.3207214   4.3712794  70.2492447  22.3310739
   5.0998955  70.0708402  21.8848895   4.4607687  71.0910527  22.5417917
   4.4919456  70.3476326  22.2964257  11.3098749  72.0532940  29.2274864
  11.9524657  72.1231045  29.8136779  11.5621770  71.3862163  28.7254406
  11.4420881  71.9659289  29.2402143   7.9283344  70.7677201  29.6962982
   8.3093855  70.0855372  30.0830856   7.1246628  70.4786803  29.5138646
   7.8659805  70.6244250  29.7267038   8.5639970  71.8099780  33.5083108
   9.3093562  71.6209591  33.0946534   8.1477274  72.3358018  32.9496965
   8.6124944  71.8601926  33.3647681   6.6090891  72.2382304  24.1780368
   7.3117243  72.0390053  23.7000326   6.3435079  71.4658247  24.4849212
   6.6737523  72.0945270  24.1525810   8.7551000  66.8762974  27.3076915
   8.8734568  67.3339437  26.5744218   8.5813175  66.0708235  27.0213132
   8.7470171  66.8256746  27.1577849   5.7228564  68.7313776  28.2495577
   4.8522121  68.7052498  28.2028886   5.9768905  68.5590969  27.4321422
   5.6322124  68.7023920  28.1215714   2.7477704  70.7420005  29.7069047
   2.2316193  70.0500196  29.8320626   2.1871633  71.4090782  29.6531646
   2.5884217  70.7383262  29.7175113   4.8169938  71.2812965  31.5361900
   4.4301691  71.3061996  32.3175430   4.3302875  70.7154644  31.0836416
   4.6882446  71.2008716  31.5849803   4.4827079  68.1679950  33.8272160
   5.1120197  68.7040250  33.5493230   4.6512942  68.0757309  34.6785725
   4.6004874  68.2341313  33.9120688   7.9750998  70.7015839  26.7957461
   8.1800591  70.6338147  27.6414459   7.6477422  71.5074660  26.7278639
   7.9566246  70.8101779  26.9117117  11.2284685  71.2547603  26.2760227
  10.6158999  71.7418005  26.6613959  11.3248860  70.5791094  26.8197878
  11.1522583  71.2265912  26.4139085   4.4896362  71.5103238  27.5134595
   3.6432407  71.6826045  27.3875945   4.4867494  70.7052581  27.8500423
   4.3643512  71.4164266  27.5445722   6.5080527  69.8846791  33.1816275
   6.0121088  70.0810465  32.4907841   7.2649589  70.2839459  33.0105076
   6.5467351  69.9724525  33.0536412   5.2967719  69.7344437  25.0541421
   4.6536037  69.5842083  25.6226560   4.9567126  69.4886782  24.2890526
   5.1512796  69.6756559  25.0244436  11.4819253  69.2678159  28.3146116
  10.9750118  68.5607299  28.2467293  12.2786687  68.9371348  28.4447192
  11.5246492  69.1151310  28.3245111   3.4180740  70.6807633  34.0895526
   3.5508646  69.8838626  34.4176501   3.8025893  71.2074036  34.6693801
   3.4937069  70.6407549  34.2239028   6.4913095  67.6037959  30.6876619
   5.6859059  67.4935688  31.0044457   6.3619831  67.7050415  29.8306485
   6.3533228  67.6021629  30.6084659   0.9242825  40.2621536  10.3257388
   0.8936829  41.1166173  10.4975657   1.5224174  39.9616829  10.8843531
   1.0079983  40.3438033  10.4332190   2.8555191  45.7612581  13.7820767
   2.0252894  45.9723225  13.9454184   2.8064444  44.9349635  13.5063051
   2.7261927  45.6702187  13.7658132   2.3509150  38.4082982  17.5771188
   1.5137571  38.4785169  17.8118783   2.3197380  38.4107476  16.7045491
   2.2227432  38.4193209  17.4830736   3.2463853  43.1492855  12.8105120
   3.9080287  42.5883524  12.7101028   2.6055265  42.6544886  13.1357811
   3.2492720  42.9929264  12.8437460   1.3619140  43.0059904  10.3886713
   1.6927357  43.5387544   9.7826807   1.9352228  43.0598791  11.0448664
   1.4952819  43.0929472  10.3964494   2.4698492  38.2470400  11.8926874
   2.2135056  37.4350342  11.7024757   3.3127806  38.2547968  11.6657062
   2.5564517  38.1282398  11.8311691   1.1760072  45.1864445  17.7913721
   0.8705889  45.9192502  18.1527037   0.4566287  44.7802375  17.5106507
   1.0247414  45.2346178  17.8026858   6.8761864  41.8257446  17.1182066
   6.8086364  41.8453405  16.2484652   6.8617526  42.6687773  17.3437736
   6.8640620  41.9531181  17.0234542   4.6620481  40.6001832  15.3928660
   5.2128403  39.9669901  15.6325752   4.6464596  41.1317225  16.0844164
   4.7405677  40.5850780  15.5307518   3.5927954  43.7457363  18.6377790
   3.6511077  44.1944012  19.3837766   2.9594421  44.1556176  18.2007870
   3.5079249  43.8731098  18.6830338   2.5454820  38.5475108  14.6772739
   2.3064590  38.5070942  13.8393524   2.7088721  39.3946260  14.8038460
   2.5345124  38.6667193  14.5726221   1.5836164  41.8951468  19.1108334
   2.1754005  42.5348719  19.1426532   2.0195159  41.1974505  19.4000401
   1.7354596  41.8869818  19.1589167  11.8975409  55.7806844  10.3257388
  11.8669413  56.6351481  10.4975657  12.4956757  55.4802136  10.8843531
  11.9812567  55.8623340  10.4332190   5.0975094  54.8682495  15.0810318
   4.2412989  55.0290993  15.1319435   5.1442747  53.9974559  15.1015379
   4.9774205  54.7633297  15.0916384   8.4068810  61.1369021  24.6870774
   9.1135577  60.6421051  24.8157709   8.5956745  61.5778102  23.9573432
   8.5396716  61.1287371  24.5979820   7.9426915  56.9274539  17.7241970
   8.4882875  57.6059625  17.7835939   7.8843791  56.7862000  16.8643551
   8.0142829  57.0066541  17.6054030   1.8250880  49.7161561  14.0500701
   1.4954210  50.1672704  13.3804400   1.1495882  49.6377724  14.5973708
   1.6761317  49.7712696  14.0323925   9.0327288  45.7047083  12.2950312
   8.7180729  46.3950562  12.7270734   8.5154230  45.6491866  11.5935813
   8.9091759  45.7981972  12.2547261  13.8287775  61.2797889  13.7820767
  12.9985478  61.4908532  13.9454184  13.7797027  60.4534943  13.5063051
  13.6994510  61.1887495  13.7658132   5.5461104  64.5596557  22.5784850
   5.6344450  64.3722697  23.4263060   5.9750817  63.9133987  22.1789696
   5.6223207  64.4359565  22.6456601   3.1131564  63.8427717  21.5602512
   2.5502399  63.4300327  22.0842173   3.8752588  63.7680623  21.9795655
   3.1426013  63.7705118  21.6995512  13.3241733  53.9268289  17.5771188
  12.4870154  53.9970477  17.8118783  13.2929964  53.9292784  16.7045491
  13.1960016  53.9378517  17.4830736   4.0663618  47.1870579   9.2650786
   4.7949779  47.0086534   8.8188942   4.1558511  48.0288658   9.4757964
   4.1870280  47.2854457   9.2304304   8.0471919  58.1223966  13.1683080
   8.8029434  58.5555480  13.2071989   8.1534243  57.4728736  13.7417716
   8.1742090  58.0901450  13.2581105  11.0852090  61.9497243  13.9185483
  10.6487322  61.9533986  14.6744454  10.7515006  62.6302742  13.4865060
  10.9714710  62.0509699  13.9666315   5.6581164  63.9905576  25.2428633
   6.4421580  64.1036424  25.6084375   5.4577758  63.1646713  25.4387319
   5.7447189  63.8852295  25.3263019  11.0049573  48.9911071  16.1614911
  11.6475481  49.0609176  16.7476826  11.2572594  48.3240294  15.6594453
  11.1371705  48.9037420  16.1742190   5.8151557  65.9015678  18.8895089
   5.0166803  65.6615178  19.1468957   6.2637569  65.9530071  19.6362136
   5.7626168  65.8738069  19.0380013  14.2196436  58.6678163  12.8105120
  14.8812870  58.1068832  12.7101028  13.5787848  58.1730194  13.1357811
  14.2225304  58.5114572  12.8437460  10.5061267  59.6843546  12.5517109
  10.7416856  59.8288744  11.7243959  10.6550831  60.4485954  12.9448622
  10.5627070  59.8182600  12.4880713  12.3351724  58.5245211  10.3886713
  12.6659941  59.0572852   9.7826807  12.9084812  58.5784099  11.0448664
  12.4685403  58.6114780  10.3964494   4.8752294  59.6476123  26.7815277
   4.0825275  59.9619635  26.9667897   4.9901221  59.8627591  25.9436062
   4.7747704  59.7259960  26.6853612   7.5483613  56.3710114  11.0710293
   7.6430467  57.1099408  11.5249918   6.9242456  55.9427590  11.5044857
   7.4692643  56.4171435  11.2018440   5.8036087  59.5496327  21.7200574
   6.3774948  58.9123571  21.8749138   5.7250890  59.5500409  20.8510231
   5.8769322  59.4561438  21.6146985   6.2400855  50.0848043  13.8725864
   5.5357182  49.5957228  14.0309783   6.2885830  50.0970517  13.0014308
   6.1430907  50.0137691  13.7665204   3.8007806  54.0080704  19.1179044
   3.4122239  53.5834921  18.4631235   3.1362504  54.2562853  19.6256071
   3.6454734  53.9819425  19.0966912  13.4431075  53.7655708  11.8926874
  13.1867640  52.9535650  11.7024757  14.2860389  53.7733276  11.6657062
  13.5297101  53.6467706  11.8311691   7.6234168  47.7055332  16.6303028
   8.0044679  47.0233504  17.0170903   6.8197452  47.4164935  16.4478693
   7.5610629  47.5622381  16.6607084  11.1256234  60.9205304  21.7285427
  10.8894872  60.0893369  21.6097487  11.7699463  60.8690912  22.3140271
  11.1850905  60.7902992  21.7971320   1.5826008  50.2109531  26.4965637
   1.2679449  50.9809093  26.2335200   1.2615941  49.6479787  25.9117864
   1.4884927  50.2419799  26.3706987  12.1492655  60.7049753  17.7913721
  11.8438472  61.4377810  18.1527037  11.4298871  60.2987683  17.5106507
  11.9979997  60.7531486  17.8026858  17.8494447  57.3442754  17.1182066
  17.7818948  57.3638713  16.2484652  17.8350110  58.1873081  17.3437736
  17.8373204  57.4716489  17.0234542   8.2590794  48.7477912  20.4423155
   9.0044386  48.5587722  20.0286580   7.8428098  49.2736149  19.8837011
   8.3075768  48.7980057  20.2987728  15.6353065  56.1187140  15.3928660
  16.1860986  55.4855209  15.6325752  15.6197180  56.6502533  16.0844164
  15.7138261  56.1036088  15.5307518   2.2875455  59.9525737  19.9388553
   1.7887149  60.6641505  20.0173442   3.0975680  60.2726404  19.9006716
   2.3331562  60.1052586  19.9445122   9.3381471  54.3583474  14.5033256
   8.9946237  53.6373809  14.8540506   9.4374513  54.1497325  13.6611614
   9.3023514  54.2207677  14.4304936   7.8572436  52.2775058  16.3792799
   7.0183537  52.3036337  16.1431062   7.9276804  52.9245794  16.9598146
   7.7440830  52.3771184  16.4301916   6.3041715  49.1760435  11.1120415
   7.0068067  48.9768184  10.6340373   6.0385903  48.4036378  11.4189258
   6.3688347  49.0323402  11.0865857  11.7329960  57.4843045  13.6654041
  11.6463935  57.6398471  14.5188820  11.2780440  58.1281121  13.2913446
  11.6533217  57.6018800  13.7361148   1.0670271  50.4395721  20.1651296
   0.8753468  50.4550855  21.0150719   1.9168867  50.6359395  20.1417950
   1.1645993  50.4710072  20.2874590   5.6055776  54.8053792  12.2879600
   5.3590490  54.7249543  13.1216389   5.9340899  54.0207260  12.0942128
   5.6177020  54.6780058  12.3827123   9.5003825  61.5137152  16.0766382
   9.3618184  62.2118197  16.5815124   8.7203823  61.3585808  15.7202563
   9.3647052  61.5937318  16.0992656   7.8381910  57.8133527  22.3288763
   7.8329949  56.9413344  22.3331190   8.5442904  58.0121696  21.8558219
   7.9426914  57.7137401  22.2595799   1.5652803  57.5410511  21.7002583
   1.7096179  58.1211719  21.0645693   1.9128452  57.9186808  22.4052438
   1.6380265  57.6831215  21.7101578   3.7372721  56.7400679  19.4827715
   2.9896035  56.9331694  19.0775993   3.8914246  55.9145899  19.2451836
   3.6495148  56.6465791  19.3873121   3.9774498  50.6351230  20.3723119
   4.4347112  51.3675204  20.4995911   4.0530827  50.2117695  21.1310375
   4.0565468  50.6808468  20.5024195   8.4501824  43.8141105  14.2416962
   8.5685392  44.2717569  13.5084264   8.2763999  43.0086366  13.9553179
   8.4420995  43.7634877  14.0917895   1.8556876  52.6253334  17.2164943
   1.0652950  52.4444794  17.5382279   2.2517499  51.8480287  17.1995237
   1.7973752  52.4840795  17.2617491   7.2400562  60.2595764  14.9424389
   6.5645564  60.0280996  15.4437776   7.2492938  59.6516947  14.3166494
   7.1419067  60.1354689  14.9240541   4.3694706  55.1013593  21.6988442
   4.3053847  55.9623550  21.5708578   4.5091894  54.7845586  20.8983993
   4.3810176  55.1813760  21.5616655   8.7492497  61.8758315  27.2552893
   9.5627362  61.6043464  27.4158025   8.5887463  61.5765855  26.4513088
   8.8462445  61.7913241  27.1598298   6.0264659  52.5591972  20.1948281
   6.2406628  51.9202886  19.6411635   5.4098558  53.0037796  19.7656143
   5.9669988  52.5302116  20.0498712   8.1903747  54.1681037  21.1331588
   7.3780429  53.8606927  21.2144761   8.6493681  53.6880037  21.6974300
   8.1384132  54.0517529  21.2286182   5.4179387  45.6691908  15.1835624
   4.5472945  45.6430629  15.1368933   5.6719729  45.4969100  14.3661469
   5.3272948  45.6402051  15.0555760   5.2857254  55.5741109  25.9160290
   5.7556886  56.1983225  26.3028164   5.3319135  54.9058084  26.4753505
   5.3625130  55.5675789  26.0560362   2.4428528  47.6798136  16.6409094
   1.9267017  46.9878327  16.7660673   1.8822457  48.3468913  16.5871693
   2.2835041  47.6761394  16.6515160   4.5120761  48.2191096  18.4701947
   4.1252515  48.2440128  19.2515476   4.0253699  47.6532775  18.0176463
   4.3833270  48.1386847  18.5189850   8.7613741  62.9364605  22.5275733
   9.3993461  62.4424801  22.1938189   8.1187832  62.8642006  21.9427960
   8.7607967  62.8523614  22.3918088  10.4870741  54.7853751  17.0941649
  10.0598349  54.6980100  16.3389748   9.8496794  54.8931527  17.6796493
  10.3300348  54.7886411  17.0687090   4.1777903  45.1058082  20.7612206
   4.8071021  45.6418382  20.4833277   4.3463766  45.0135440  21.6125772
   4.2955698  45.1719444  20.8460735   3.9791818  49.8929276  23.0338618
   4.8065247  49.6214425  23.0897233   3.9999664  50.6890118  23.3902436
   4.1044668  49.9709031  23.0953801   8.8167997  63.6284413  19.1681090
   9.6060376  63.2773478  19.2883172   8.9911595  64.4420802  18.9057724
   8.9588279  63.6970270  19.1468958   7.6701822  47.6393970  13.7297508
   7.8751415  47.5716278  14.5754505   7.3428246  48.4452791  13.6618686
   7.6517070  47.7479910  13.8457163   2.3677973  54.9674538  15.4706476
   2.0641110  54.4130527  16.0716884   1.6657394  55.1466748  14.9834510
   2.2194183  54.9119321  15.4876182  10.9235509  48.1925734  13.2100274
  10.3109823  48.6796136  13.5954006  11.0199684  47.5169225  13.7537925
  10.8473407  48.1644043  13.3479132  14.5660537  59.2642671  18.6377790
  14.6243661  59.7129320  19.3837766  13.9327005  59.6741484  18.2007870
  14.4811832  59.3916406  18.6830338   4.1847186  48.4481369  14.4474642
   3.3383231  48.6204176  14.3215992   4.1818318  47.6430712  14.7840470
   4.0594336  48.3542398  14.4785769   5.2545486  52.2256583  15.3136700
   4.7805440  51.6998345  15.8242011   5.6263622  51.6786056  14.7451561
   5.2395375  52.0672580  15.3051847  11.5182217  57.2858959  16.7243480
  11.2780440  56.4465374  16.7285907  11.9974224  57.3659125  17.4484254
  11.5534400  57.1740358  16.8318283  13.5187404  54.0660416  14.6772739
  13.2797174  54.0256250  13.8393524  13.6821305  54.9131568  14.8038460
  13.5077707  54.1852501  14.5726221  10.1233434  58.4510365  20.6077784
  10.8467633  57.9982892  20.4288804   9.8583396  58.7315031  19.8250112
  10.1914707  58.4261334  20.4656500   5.9052223  58.5494243  18.7572800
   5.2909217  58.0052294  19.0521435   6.4219508  58.0358480  18.2778616
   5.8907886  58.3930653  18.7297028   5.1448521  59.6198514  16.4917098
   4.7176129  58.9948232  16.0582534   5.1373465  59.3373435  17.3176105
   5.0807662  59.4851294  16.5496926   6.2031351  46.8224922  20.1156322
   5.7071912  47.0188596  19.4247888   6.9600413  47.2217590  19.9445123
   6.2418175  46.9102656  19.9876458   3.4734230  50.4967268  16.7059632
   3.4976717  49.9627380  16.0172412   3.7245704  49.9884577  17.3685223
   3.5144149  50.3428172  16.7024277   1.9365165  58.7898826  24.1885671
   1.0860796  58.9270541  24.3243316   2.0993293  58.0562605  24.6333373
   1.8349029  58.7012928  24.2741270  12.5568748  57.4136776  19.1108334
  13.1486588  58.0534027  19.1426532  12.9927742  56.7159813  19.4000401
  12.7087179  57.4055126  19.1589167   4.3862138  61.8354148  19.7366228
   3.8787229  62.3889995  20.1806859   4.0888784  61.8962438  18.9185003
   4.2667023  61.9260460  19.6814685   6.5524320  50.2007468  18.5790891
   6.9779391  49.7479994  17.9674417   5.9381313  49.6467539  18.8555679
   6.5252965  50.0521444  18.5295916   4.9918543  46.6722568  11.9881468
   4.3486861  46.5220214  12.5566607   4.6517950  46.4264913  11.2230573
   4.8463620  46.6134690  11.9584483   9.5817889  54.6281995  11.4111477
   8.9109079  55.1711697  11.2824542  10.2757640  55.0976850  11.1693171
   9.5846757  54.7780266  11.3567004   9.7446017  51.0837878  14.3201850
  10.0973627  50.6567601  14.9947649   8.8860818  50.9988722  14.4502926
   9.6695461  51.0082619  14.4396860   7.7429283  54.3473247  18.2686692
   7.7227210  54.1656542  19.1221471   7.7908483  55.2185265  18.2446276
   7.7463924  54.4489785  18.3909987   5.6875612  60.9360439  24.1935169
   5.6471467  60.2910116  23.6080325   6.4998931  60.8797056  24.5060581
   5.8018766  60.8319406  24.1532118  11.1770077  46.2056290  15.2486162
  10.6700941  45.4985430  15.1807340  11.9737511  45.8749479  15.3787239
  11.2197316  46.0529442  15.2585157   7.0934093  52.7122902  11.1459826
   6.8647786  52.7355604  10.3038184   7.3532169  51.8880369  11.2654837
   7.0980281  52.5938982  11.0385024   1.3753321  54.5657375  20.7484926
   0.8632224  53.9578558  21.1069958   1.2032817  55.2813968  21.2158902
   1.2742958  54.5820675  20.8701150   5.2522391  52.4881620  23.1887182
   5.8093822  52.2595430  22.5565647   4.9283456  53.2487286  22.9122394
   5.2868802  52.5665457  23.0543679   2.9705509  55.5749273  24.1539189
   3.7216836  55.8900950  24.4678743   3.1628085  55.3728444  23.3273111
   3.1096923  55.5916655  24.0782585   9.8190799  51.7022840  11.3962984
   9.8185025  51.5471496  12.2547261   9.6146979  52.5485827  11.3404370
   9.7890577  51.8043460  11.5150924   7.5431651  56.3820342  15.0499191
   8.0385316  55.6643337  15.0103212   6.7331427  56.0791139  14.9353678
   7.4975544  56.2317988  15.0272917   9.6083470  59.1324029  17.7376320
  10.0338541  58.6098451  17.1846745   9.2440390  59.7304866  17.2164943
   9.6170072  59.1434256  17.5785330   8.2839054  64.4559607  26.2469550
   8.3936019  63.6668167  26.6026297   8.6129950  64.3665543  25.4443888
   8.3491460  64.3265460  26.1811940   3.1131564  47.6185764  21.0235572
   3.2459470  46.8216757  21.3516548   3.4976717  48.1452167  21.6033848
   3.1887893  47.5785681  21.1579075   6.8336016  62.6376227  20.8305170
   6.2856962  62.0134111  20.5625235   7.2949044  62.8270499  20.1149250
   6.8203225  62.5735278  20.6855601   6.1863919  44.5416090  17.6216666
   5.3809883  44.4313820  17.9384504   6.0570655  44.6428546  16.7646531
   6.0484052  44.5399760  17.5424706   9.6429880  50.7061582  18.2156362
   9.0592869  51.2070788  17.8033930   9.9634174  50.1991138  17.5820686
   9.6043055  50.7053417  18.0614870   0.7720011  47.6144939  19.2713466
   1.3164424  47.2736066  19.8617808   0.8256947  48.4730400  19.4134751
   0.8609130  47.6900198  19.3795339   6.3994342  63.6427300  17.3614511
   7.2192716  63.4990266  17.6230807   6.1188419  64.2673499  17.9030949
   6.4791085  63.7137652  17.4802451  22.8707992  71.2992152  10.3257388
  22.8401997  72.1536789  10.4975657  23.4689341  70.9987444  10.8843531
  22.9545150  71.3808648  10.4332190  16.0707677  70.3867803  15.0810318
  15.2145573  70.5476301  15.1319435  16.1175331  69.5159867  15.1015379
  15.9506789  70.2818605  15.0916384  19.3801394  76.6554328  24.6870774
  20.0868161  76.1606359  24.8157709  19.5689329  77.0963410  23.9573432
  19.5129299  76.6472679  24.5979820  18.9159498  72.4459847  17.7241970
  19.4615458  73.1244933  17.7835939  18.8576374  72.3047308  16.8643551
  18.9875412  72.5251848  17.6054030  12.7983464  65.2346868  14.0500701
  12.4686794  65.6858012  13.3804400  12.1228466  65.1563032  14.5973708
  12.6493900  65.2898004  14.0323925  20.0059872  61.2232391  12.2950312
  19.6913313  61.9135870  12.7270734  19.4886813  61.1677174  11.5935813
  19.8824342  61.3167280  12.2547261  24.8020358  76.7983197  13.7820767
  23.9718062  77.0093840  13.9454184  24.7529611  75.9720251  13.5063051
  24.6727094  76.7072803  13.7658132  24.2974317  69.4453597  17.5771188
  23.4602738  69.5155784  17.8118783  24.2662548  69.4478092  16.7045491
  24.1692599  69.4563824  17.4830736  10.6939046  71.5886633  23.2919557
  10.8659549  71.4792528  24.1404838  11.2308403  72.2341039  23.0550749
  10.7984050  71.6678635  23.3824654  15.0396202  62.7055887   9.2650786
  15.7682362  62.5271842   8.8188942  15.1291095  63.5473966   9.4757964
  15.1602864  62.8039765   9.2304304  19.0204503  73.6409274  13.1683080
  19.7762018  74.0740788  13.2071989  19.1266827  72.9914044  13.7417716
  19.1474673  73.6086758  13.2581105  22.0584674  77.4682551  13.9185483
  21.6219906  77.4719294  14.6744454  21.7247589  78.1488050  13.4865060
  21.9447294  77.5695007  13.9666315  21.9782157  64.5096379  16.1614911
  22.6208065  64.5794484  16.7476826  22.2305177  63.8425602  15.6594453
  22.1104289  64.4222728  16.1742190   9.7499369  67.7196942  20.7739485
   9.0571166  67.2493922  21.0200216  10.3659696  67.4935247  21.3481192
   9.7383899  67.6164074  20.8948637  25.1929020  74.1863471  12.8105120
  25.8545454  73.6254140  12.7101028  24.5520432  73.6915502  13.1357811
  25.1957887  74.0299880  12.8437460  21.4793851  75.2028853  12.5517109
  21.7149440  75.3474052  11.7243959  21.6283414  75.9671262  12.9448622
  21.5359654  75.3367908  12.4880713   8.4739928  71.6862346  21.9166330
   9.1979900  71.6715377  22.4031225   8.5756065  72.3957702  21.4188298
   8.5958137  71.7887050  21.9145117  23.3084307  74.0430519  10.3886713
  23.6392524  74.5758160   9.7826807  23.8817395  74.0969407  11.0448664
  23.4417986  74.1300088  10.3964494  15.8484877  75.1661431  26.7815277
  15.0557858  75.4804943  26.9667897  15.9633805  75.3812899  25.9436062
  15.7480288  75.2445268  26.6853612  18.5216196  71.8895422  11.0710293
  18.6163051  72.6284716  11.5249918  17.8975040  71.4612898  11.5044857
  18.4425227  71.9356743  11.2018440  16.7768670  75.0681635  21.7200574
  17.3507532  74.4308879  21.8749138  16.6983474  75.0685717  20.8510231
  16.8501905  74.9746746  21.6146985  17.2133439  65.6033351  13.8725864
  16.5089766  65.1142536  14.0309783  17.2618413  65.6155825  13.0014308
  17.1163491  65.5322999  13.7665204  14.7740390  69.5266012  19.1179044
  14.3854822  69.1020229  18.4631235  14.1095088  69.7748161  19.6256071
  14.6187317  69.5004733  19.0966912  24.4163659  69.2841016  11.8926874
  24.1600224  68.4720958  11.7024757  25.2592973  69.2918583  11.6657062
  24.5029684  69.1653014  11.8311691  18.5966751  63.2240640  16.6303028
  18.9777263  62.5418811  17.0170903  17.7930035  62.9350242  16.4478693
  18.5343213  63.0807689  16.6607084  22.0988818  76.4390612  21.7285427
  21.8627455  75.6078677  21.6097487  22.7432047  76.3876220  22.3140271
  22.1583489  76.3088300  21.7971320  12.5558592  65.7294839  26.4965637
  12.2412033  66.4994401  26.2335200  12.2348524  65.1665095  25.9117864
  12.4617511  65.7605107  26.3706987  23.1225239  76.2235061  17.7913721
  22.8171056  76.9563118  18.1527037  22.4031454  75.8172991  17.5106507
  22.9712581  76.2716794  17.8026858  28.8227031  72.8628062  17.1182066
  28.7551531  72.8824021  16.2484652  28.8082693  73.7058389  17.3437736
  28.8105787  72.9901796  17.0234542  19.2323377  64.2663219  20.4423155
  19.9776969  64.0773030  20.0286580  18.8160682  64.7921457  19.8837011
  19.2808352  64.3165365  20.2987728  26.6085648  71.6372448  15.3928660
  27.1593570  71.0040517  15.6325752  26.5929764  72.1687841  16.0844164
  26.6870845  71.6221396  15.5307518  20.3114054  69.8768782  14.5033256
  19.9678820  69.1559117  14.8540506  20.4107097  69.6682633  13.6611614
  20.2756097  69.7392985  14.4304936  12.1875097  68.3292090  25.2350852
  11.3774873  68.6349869  25.1240694  12.6649784  69.0497672  25.3503436
  12.1378576  68.4806691  25.2357923  18.8305020  67.7960366  16.3792799
  17.9916120  67.8221645  16.1431062  18.9009387  68.4431102  16.9598146
  18.7173413  67.8956492  16.4301916  17.2774298  64.6945743  11.1120415
  17.9800651  64.4953492  10.6340373  17.0118487  63.9221686  11.4189258
  17.3420930  64.5508709  11.0865857  22.7062544  73.0028353  13.6654041
  22.6196518  73.1583779  14.5188820  22.2513024  73.6466429  13.2913446
  22.6265800  73.1204108  13.7361148  12.0402854  65.9581029  20.1651296
  11.8486051  65.9736163  21.0150719  12.8901450  66.1544703  20.1417950
  12.1378576  65.9895380  20.2874590  16.5788360  70.3239100  12.2879600
  16.3323074  70.2434851  13.1216389  16.9073483  69.5392568  12.0942128
  16.5909603  70.1965366  12.3827123  20.4736409  77.0322460  16.0766382
  20.3350768  77.7303505  16.5815124  19.6936406  76.8771116  15.7202563
  20.3379635  77.1122626  16.0992656  18.8114494  73.3318835  22.3288763
  18.8062532  72.4598651  22.3331190  19.5175488  73.5307004  21.8558219
  18.9159498  73.2322709  22.2595799  12.5385387  73.0595819  21.7002583
  12.6828763  73.6397027  21.0645693  12.8861036  73.4372116  22.4052438
  12.6112848  73.2016523  21.7101578  14.7105304  72.2585987  19.4827715
  13.9628618  72.4517002  19.0775993  14.8646830  71.4331207  19.2451836
  14.6227732  72.1651099  19.3873121  14.9507081  66.1536538  20.3723119
  15.4079695  66.8860512  20.4995911  15.0263410  65.7303003  21.1310375
  15.0298051  66.1993776  20.5024195   7.1940073  66.4002358  21.4612562
   6.6582262  65.7882716  21.7773330   7.2557837  66.9750494  22.1146229
   7.1235705  66.3949285  21.6047989  19.4234407  59.3326413  14.2416962
  19.5417975  59.7902876  13.5084264  19.2496583  58.5271674  13.9553179
  19.4153578  59.2820185  14.0917895  12.8289459  68.1438642  17.2164943
  12.0385534  67.9630102  17.5382279  13.2250082  67.3665594  17.1995237
  12.7706335  68.0026103  17.2617491  18.2133146  75.7781072  14.9424389
  17.5378147  75.5466304  15.4437776  18.2225522  75.1702255  14.3166494
  18.1151650  75.6539997  14.9240541  15.3427290  70.6198901  21.6988442
  15.2786431  71.4808857  21.5708578  15.4824477  70.3030894  20.8983993
  15.3542760  70.6999068  21.5616655  19.7225080  77.3943623  27.2552893
  20.5359946  77.1228772  27.4158025  19.5620047  77.0951163  26.4513088
  19.8195029  77.3098549  27.1598298  16.9997242  68.0777280  20.1948281
  17.2139212  67.4388194  19.6411635  16.3831142  68.5223104  19.7656143
  16.9402572  68.0487424  20.0498712  19.1636330  69.6866345  21.1331588
  18.3513012  69.3792235  21.2144761  19.6226265  69.2065345  21.6974300
  19.1116715  69.5702837  21.2286182  16.3911971  61.1877216  15.1835624
  15.5205529  61.1615937  15.1368933  16.6452312  61.0154408  14.3661469
  16.3005531  61.1587359  15.0555760  16.2589838  71.0926416  25.9160290
  16.7289469  71.7168533  26.3028164  16.3051718  70.4243392  26.4753505
  16.3357714  71.0861097  26.0560362  13.4161112  63.1983444  16.6409094
  12.8999600  62.5063635  16.7660673  12.8555040  63.8654221  16.5871693
  13.2567625  63.1946702  16.6515160  15.4853345  63.7376404  18.4701947
  15.0985098  63.7625435  19.2515476  14.9986282  63.1718083  18.0176463
  15.3565854  63.6572155  18.5189850  21.4603325  70.3039059  17.0941649
  21.0330933  70.2165408  16.3389748  20.8229377  70.4116834  17.6796493
  21.3032932  70.3071719  17.0687090  15.1510487  60.6243390  20.7612206
  15.7803605  61.1603690  20.4833277  15.3196349  60.5320748  21.6125772
  15.2688281  60.6904752  20.8460735  14.9524402  65.4114584  23.0338618
  15.7797831  65.1399733  23.0897233  14.9732248  66.2075426  23.3902436
  15.0777252  65.4894338  23.0953801  18.6434405  63.1579278  13.7297508
  18.8483999  63.0901586  14.5754505  18.3160829  63.9638099  13.6618686
  18.6249653  63.2665218  13.8457163  13.3410556  70.4859846  15.4706476
  13.0373694  69.9315834  16.0716884  12.6389977  70.6652056  14.9834510
  13.1926766  70.4304629  15.4876182  21.8968093  63.7111042  13.2100274
  21.2842407  64.1981444  13.5954006  21.9932268  63.0354533  13.7537925
  21.8205991  63.6829351  13.3479132   9.8163322  66.1124207  18.3068529
  10.2764804  66.1863136  19.0443653   9.8619429  66.9105461  17.9568351
   9.8913877  66.2418354  18.3641286  11.4646672  66.7790902  22.8740556
  11.0732237  66.1324249  23.3096334  11.6332535  67.3702337  23.4934812
  11.4317582  66.7705170  23.0303262  25.5393121  74.7827979  18.6377790
  25.5976245  75.2314628  19.3837766  24.9059588  75.1926792  18.2007870
  25.4544416  74.9101714  18.6830338  15.1579769  63.9666677  14.4474642
  14.3115814  64.1389484  14.3215992  15.1550902  63.1616020  14.7840470
  15.0326919  63.8727706  14.4785769  16.2278070  67.7441891  15.3136700
  15.7538024  67.2183653  15.8242011  16.5996206  67.1971364  14.7451561
  16.2127959  67.5857888  15.3051847   6.6051100  69.7413398  20.6820245
   7.4676713  69.6409107  20.5957575   6.2742883  69.1608107  20.1205818
   6.6836296  69.6405024  20.5865651  22.4914800  72.8044267  16.7243480
  22.2513023  71.9650682  16.7285907  22.9706808  72.8844433  17.4484254
  22.5266984  72.6925666  16.8318283  24.4919987  69.5845724  14.6772739
  24.2529757  69.5441558  13.8393524  24.6553889  70.4316876  14.8038460
  24.4810291  69.7037809  14.5726221  21.0966017  73.9695673  20.6077784
  21.8200216  73.5168200  20.4288804  20.8315980  74.2500339  19.8250112
  21.1647291  73.9446642  20.4656500   9.9652886  68.5655847  17.3430664
   9.3405956  68.5774239  16.7356616   9.6298481  69.0416022  17.9921904
   9.8238378  68.6374364  17.3487232  16.8784807  74.0679551  18.7572800
  16.2641800  73.5237602  19.0521435  17.3952092  73.5543788  18.2778616
  16.8640469  73.9115960  18.7297028  16.1181104  75.1383821  16.4917098
  15.6908712  74.5133540  16.0582534  16.1106049  74.8558743  17.3176105
  16.0540245  75.0036602  16.5496926   9.2343631  70.1748994  19.5605532
   9.3937118  69.4192319  19.9657254   9.0536525  70.7239934  20.2146270
   9.2308990  70.1442808  19.7168238  17.1763934  62.3410230  20.1156322
  16.6804496  62.5373904  19.4247888  17.9332996  62.7402898  19.9445123
  17.2150759  62.4287964  19.9876458  14.4466814  66.0152576  16.7059632
  14.4709301  65.4812688  16.0172412  14.6978287  65.5069885  17.3685223
  14.4876733  65.8613480  16.7024277  10.7268136  64.7423394  16.0865376
  10.7666508  65.2432601  16.8000084   9.9017801  64.8333788  15.8171300
  10.6107662  64.8305211  16.1515915  12.9097749  74.3084134  24.1885671
  12.0593380  74.4455848  24.3243316  13.0725877  73.5747912  24.6333373
  12.8081612  74.2198235  24.2741270  12.1482499  71.2583904  18.3839275
  11.3174429  71.4257722  18.1774524  12.0934017  70.8819855  19.1688161
  12.0171914  71.2273635  18.4687804   9.9566283  64.7492797  24.0195686
  10.5818986  64.2054930  24.2925118   9.5016763  64.2687715  23.4503477
   9.9814543  64.5982278  23.9757280  23.5301331  72.9322084  19.1108334
  24.1219172  73.5719335  19.1426532  23.9660326  72.2345121  19.4000401
  23.6819763  72.9240434  19.1589167  17.5256904  65.7192776  18.5790891
  17.9511975  65.2665302  17.9674417  16.9113897  65.1652847  18.8555679
  17.4985549  65.5706752  18.5295916  15.9651126  62.1907876  11.9881468
  15.3219444  62.0405522  12.5566607  15.6250533  61.9450221  11.2230573
  15.8196204  62.1319998  11.9584483  20.5550473  70.1467303  11.4111477
  19.8841663  70.6897005  11.2824542  21.2490223  70.6162158  11.1693171
  20.5579340  70.2965574  11.3567004  20.7178600  66.6023186  14.3201850
  21.0706210  66.1752909  14.9947649  19.8593402  66.5174030  14.4502926
  20.6428045  66.5267927  14.4396860  18.7161866  69.8658555  18.2686692
  18.6959793  69.6841850  19.1221471  18.7641067  70.7370573  18.2446276
  18.7196507  69.9675093  18.3909987  16.6608196  76.4545747  24.1935169
  16.6204051  75.8095424  23.6080325  17.4731514  76.3982364  24.5060581
  16.7751350  76.3504714  24.1532118  22.1502660  61.7241598  15.2486162
  21.6433525  61.0170738  15.1807340  22.9470094  61.3934787  15.3787239
  22.1929900  61.5714749  15.2585157  18.0666676  68.2308210  11.1459826
  17.8380369  68.2540912  10.3038184  18.3264752  67.4065677  11.2654837
  18.0712864  68.1124290  11.0385024  12.3485905  70.0842683  20.7484926
  11.8364808  69.4763866  21.1069958  12.1765401  70.7999276  21.2158902
  12.2475542  70.1005983  20.8701150   7.1951619  68.5280259  23.3987288
   7.0254210  69.1881634  22.8535495   6.7517569  68.7386820  24.1199777
   7.1050953  68.6566241  23.4248918  16.2254975  68.0066928  23.1887182
  16.7826405  67.7780738  22.5565647  15.9016040  68.7672594  22.9122394
  16.2601385  68.0850765  23.0543679  13.9438092  71.0934581  24.1539189
  14.6949419  71.4086258  24.4678743  14.1360669  70.8913752  23.3273111
  14.0829506  71.1101963  24.0782585  20.7923382  67.2208148  11.3962984
  20.7917609  67.0656804  12.2547261  20.5879562  68.0671135  11.3404370
  20.7623160  67.3228768  11.5150924  18.5164234  71.9005649  15.0499191
  19.0117900  71.1828644  15.0103212  17.7064010  71.5976447  14.9353678
  18.4708128  71.7503296  15.0272917  20.5816053  74.6509337  17.7376320
  21.0071125  74.1283759  17.1846745  20.2172973  75.2490174  17.2164943
  20.5902656  74.6619564  17.5785330  14.0864148  63.1371072  21.0235572
  14.2192053  62.3402065  21.3516548  14.4709301  63.6637475  21.6033848
  14.1620477  63.0970988  21.1579075  17.1596503  60.0601398  17.6216666
  16.3542467  59.9499128  17.9384504  17.0303238  60.1613854  16.7646531
  17.0216636  60.0585068  17.5424706  20.6162463  66.2246890  18.2156362
  20.0325452  66.7256096  17.8033930  20.9366758  65.7176446  17.5820686
  20.5775639  66.2238725  18.0614870  11.7452595  63.1330247  19.2713466
  12.2897007  62.7921374  19.8617808  11.7989530  63.9915708  19.4134751
  11.8341714  63.2085506  19.3795339  30.9792455  76.7417699  12.2950312
  30.6645896  77.4321178  12.7270734  30.4619397  76.6862482  11.5935813
  30.8556926  76.8352588  12.2547261  26.0128785  78.2241195   9.2650786
  26.7414946  78.0457149   8.8188942  26.1023678  79.0659274   9.4757964
  26.1335447  78.3225073   9.2304304  32.9514740  80.0281687  16.1614911
  33.5940649  80.0979792  16.7476826  33.2037761  79.3610910  15.6594453
  33.0836872  79.9408036  16.1742190  29.5699335  78.7425948  16.6303028
  29.9509847  78.0604119  17.0170903  28.7662619  78.4535550  16.4478693
  29.5075796  78.5992997  16.6607084  30.2055961  79.7848527  20.4423155
  30.9509553  79.5958338  20.0286580  29.7893266  80.3106765  19.8837011
  30.2540935  79.8350673  20.2987728  28.2506882  80.2131051  11.1120415
  28.9533234  80.0138800  10.6340373  27.9851070  79.4406994  11.4189258
  28.3153514  80.0694017  11.0865857  30.3966991  74.8511721  14.2416962
  30.5150559  75.3088184  13.5084264  30.2229167  74.0456982  13.9553179
  30.3886162  74.8005493  14.0917895  27.3644555  76.7062523  15.1835624
  26.4938113  76.6801245  15.1368933  27.6184896  76.5339716  14.3661469
  27.2738115  76.6772667  15.0555760  26.4585929  79.2561712  18.4701947
  26.0717682  79.2810743  19.2515476  25.9718866  78.6903391  18.0176463
  26.3298438  79.1757463  18.5189850  26.1243070  76.1428697  20.7612206
  26.7536188  76.6788997  20.4833277  26.2928933  76.0506056  21.6125772
  26.2420865  76.2090060  20.8460735  29.6166989  78.6764586  13.7297508
  29.8216582  78.6086894  14.5754505  29.2893413  79.4823407  13.6618686
  29.5982237  78.7850526  13.8457163  32.8700676  79.2296350  13.2100274
  32.2574990  79.7166752  13.5954006  32.9664851  78.5539841  13.7537925
  32.7938574  79.2014659  13.3479132  28.1496518  77.8595538  20.1156322
  27.6537079  78.0559212  19.4247888  28.9065580  78.2588206  19.9445123
  28.1883343  77.9473272  19.9876458  26.9383710  77.7093184  11.9881468
  26.2952028  77.5590830  12.5566607  26.5983117  77.4635529  11.2230573
  26.7928787  77.6505306  11.9584483  33.1235244  77.2426906  15.2486162
  32.6166109  76.5356046  15.1807340  33.9202678  76.9120095  15.3787239
  33.1662483  77.0900057  15.2585157  25.0596731  78.6556380  21.0235572
  25.1924637  77.8587373  21.3516548  25.4441884  79.1822783  21.6033848
  25.1353060  78.6156296  21.1579075  28.1329086  75.5786706  17.6216666
  27.3275050  75.4684435  17.9384504  28.0035822  75.6799162  16.7646531
  27.9949219  75.5770376  17.5424706   8.1019634  38.0747152  11.6210821
   8.8086401  37.5799182  11.7497756   8.2907569  38.5156233  10.8913479
   8.2347540  38.0665502  11.5319867   5.2411928  41.4974688   9.5124896
   5.3295274  41.3100829  10.3603107   5.6701641  40.8512118   9.1129743
   5.3174031  41.3737696   9.5796648   2.8082388  40.7805848   8.4942559
   2.2453223  40.3678458   9.0182220   3.5703412  40.7058754   8.9135702
   2.8376837  40.7083249   8.6335559   5.3531988  40.9283707  12.1768680
   6.1372404  41.0414555  12.5424422   5.1528582  40.1024844  12.3727366
   5.4398013  40.8230427  12.2603066   5.5102381  42.8393809   5.8235136
   4.7117627  42.5993309   6.0809004   5.9588392  42.8908202   6.5702183
   5.4576992  42.8116200   5.9720060   4.5703118  36.5854254  13.7155324
   3.7776099  36.8997766  13.9007943   4.6852045  36.8005723  12.8776108
   4.4698528  36.6638091  13.6193658  10.8207058  37.8583436   8.6625474
  10.5845696  37.0271500   8.5437534  11.4650287  37.8069043   9.2480318
  10.8801729  37.7281124   8.7311367   8.4443321  38.8136446  14.1892939
   9.2578186  38.5421595  14.3498072   8.2838287  38.5143986  13.3853135
   8.5413269  38.7291372  14.0938345   4.9808078  32.5119240  12.8500337
   5.4507709  33.1361356  13.2368211   5.0269958  31.8436215  13.4093552
   5.0575954  32.5053920  12.9900408   8.4564565  39.8742736   9.4615780
   9.0944285  39.3802932   9.1278236   7.8138656  39.8020137   8.8768007
   8.4558791  39.7901745   9.3258135   8.5118821  40.5662545   6.1021137
   9.3011200  40.2151609   6.2223218   8.6862419  41.3798933   5.8397770
   8.6539103  40.6348402   6.0809005   5.3826436  37.8738570  11.1275216
   5.3422291  37.2288247  10.5420371   6.1949755  37.8175187  11.4400628
   5.4969590  37.7697537  11.0872165   7.9789878  41.3937738  13.1809596
   8.0886843  40.6046298  13.5366344   8.3080774  41.3043674  12.3783935
   8.0442284  41.2643591  13.1151987   6.5286839  39.5754359   7.7645217
   5.9807785  38.9512242   7.4965282   6.9899868  39.7648631   7.0489296
   6.5154049  39.5113409   7.6195648  22.5658816  48.2370283  -2.7402565
  22.5352821  49.0914920  -2.5684296  23.1640165  47.9365576  -2.1816422
  22.6495974  48.3186780  -2.6327763  15.7658501  47.3245934   2.0150365
  14.9096397  47.4854432   2.0659482  15.8126155  46.4537998   2.0355426
  15.6457612  47.2196736   2.0256431  19.0752218  53.5932460  11.6210821
  19.7818985  53.0984490  11.7497756  19.2640153  54.0341541  10.8913479
  19.2080123  53.5850810  11.5319867  18.6110322  49.3837978   4.6582017
  19.1566282  50.0623065   4.7175986  18.5527198  49.2425439   3.7983598
  18.6826236  49.4629980   4.5394077  24.4971182  53.7361328   0.7160814
  23.6668885  53.9471972   0.8794230  24.4480435  52.9098383   0.4403097
  24.3677918  53.6450934   0.6998179  16.2144512  57.0159996   9.5124896
  16.3027858  56.8286137  10.3603107  16.6434224  56.3697426   9.1129743
  16.2906614  56.8923004   9.5796648  13.7814972  56.2991156   8.4942559
  13.2185806  55.8863766   9.0182220  14.5435995  56.2244062   8.9135702
  13.8109420  56.2268557   8.6335559  23.9925141  46.3831729   4.5111235
  23.1553562  46.4533916   4.7458830  23.9613372  46.3856223   3.6385538
  23.8643423  46.3941956   4.4170783  10.3889870  48.5264764  10.2259604
  10.5610373  48.4170659  11.0744885  10.9259227  49.1719170   9.9890796
  10.4934874  48.6056766  10.3164700  18.7155326  50.5787405   0.1023127
  19.4712841  51.0118919   0.1412035  18.8217651  49.9292175   0.6757763
  18.8425497  50.5464889   0.1921152  21.7535498  54.4060682   0.8525530
  21.3170729  54.4097425   1.6084501  21.4198413  55.0866181   0.4205107
  21.6398118  54.5073138   0.9006362  16.3264571  56.4469015  12.1768680
  17.1104988  56.5599863  12.5424422  16.1261166  55.6210152  12.3727366
  16.4130597  56.3415735  12.2603066  21.6732980  41.4474510   3.0954958
  22.3158889  41.5172615   3.6816873  21.9256001  40.7803733   2.5934499
  21.8055113  41.3600859   3.1082237   9.4450193  44.6575074   7.7079532
   8.7521990  44.1872053   7.9540263  10.0610520  44.4313378   8.2821239
   9.4334723  44.5542205   7.8288684  16.4834965  58.3579117   5.8235136
  15.6850210  58.1178617   6.0809004  16.9320976  58.4093510   6.5702183
  16.4309576  58.3301508   5.9720060  24.8879844  51.1241602  -0.2554833
  25.5496278  50.5632271  -0.3558925  24.2471256  50.6293633   0.0697858
  24.8908711  50.9678011  -0.2222493  21.1744674  52.1406985  -0.5142844
  21.4100264  52.2852184  -1.3415994  21.3234238  52.9049393  -0.1211331
  21.2310478  52.2746039  -0.5779241   8.1690752  48.6240478   8.8506377
   8.8930724  48.6093508   9.3371271   8.2706888  49.3335833   8.3528345
   8.2908961  48.7265181   8.8485164  23.0035131  50.9808651  -2.6773241
  23.3343348  51.5136291  -3.2833146  23.5768219  51.0347538  -2.0211290
  23.1368810  51.0678219  -2.6695459  15.5435701  52.1039562  13.7155324
  14.7508682  52.4183074  13.9007943  15.6584628  52.3191031  12.8776108
  15.4431112  52.1823399  13.6193658  18.2167020  48.8273553  -1.9949660
  18.3113875  49.5662847  -1.5410035  17.5925864  48.3991029  -1.5615096
  18.1376050  48.8734874  -1.8641513  16.4719494  52.0059766   8.6540620
  17.0458356  51.3687010   8.8089184  16.3934298  52.0063848   7.7850278
  16.5452729  51.9124877   8.5487031  14.4691214  46.4644143   6.0519091
  14.0805646  46.0398361   5.3971282  13.8045912  46.7126292   6.5596118
  14.3138141  46.4382864   6.0306959  24.1114483  46.2219147  -1.1733079
  23.8551048  45.4099089  -1.3635196  24.9543797  46.2296715  -1.4002892
  24.1980508  46.1031145  -1.2348262  18.2917575  40.1618772   3.5643075
  18.6728087  39.4796943   3.9510949  17.4880859  39.8728374   3.3818740
  18.2294037  40.0185820   3.5947131  21.7939642  53.3768744   8.6625474
  21.5578279  52.5456808   8.5437534  22.4382871  53.3254351   9.2480318
  21.8534313  53.2466431   8.7311367  12.2509416  42.6672970  13.4305684
  11.9362857  43.4372533  13.1675246  11.9299348  42.1043226  12.8457911
  12.1568335  42.6983238  13.3047034  22.8176063  53.1613192   4.7253768
  22.5121880  53.8941249   5.0867084  22.0982278  52.7551122   4.4446554
  22.6663405  53.2094925   4.7366905  28.5177855  49.8006193   4.0522112
  28.4502355  49.8202152   3.1824699  28.5033517  50.6436520   4.2777783
  28.5056611  49.9279928   3.9574589  18.9274201  41.2041351   7.3763202
  19.6727793  41.0151161   6.9626627  18.5111506  41.7299589   6.8177058
  18.9759175  41.2543496   7.2327775  26.3036472  48.5750579   2.3268707
  26.8544394  47.9418648   2.5665799  26.2880587  49.1065972   3.0184211
  26.3821668  48.5599527   2.4647565  12.9558863  52.4089176   6.8728600
  12.4570557  53.1204944   6.9513489  13.7659087  52.7289843   6.8346763
  13.0014970  52.5616025   6.8785169  20.0064878  46.8146913   1.4373303
  19.6629644  46.0937248   1.7880553  20.1057921  46.6060764   0.5951661
  19.9706921  46.6771116   1.3644983  11.8825921  45.2670221  12.1690899
  11.0725697  45.5728001  12.0580741  12.3600608  45.9875803  12.2843483
  11.8329400  45.4184822  12.1697970  18.5255844  44.7338498   3.3132846
  17.6866944  44.7599776   3.0771109  18.5960211  45.3809233   3.8938193
  18.4124237  44.8334623   3.3641963  22.4013368  49.9406484   0.5994088
  22.3147342  50.0961910   1.4528866  21.9463848  50.5844560   0.2253493
  22.3216624  50.0582239   0.6701194  11.7353678  42.8959160   7.0991342
  11.5436875  42.9114294   7.9490766  12.5852274  43.0922834   7.0757997
  11.8329400  42.9273511   7.2214637  16.2739184  47.2617231  -0.7780353
  16.0273898  47.1812982   0.0556436  16.6024307  46.4770699  -0.9717825
  16.2860427  47.1343497  -0.6832830  20.1687232  53.9700591   3.0106428
  20.0301592  54.6681637   3.5155171  19.3887230  53.8149247   2.6542610
  20.0330459  54.0500757   3.0332703  18.5065318  50.2696966   9.2628810
  18.5013356  49.3976783   9.2671237  19.2126311  50.4685135   8.7898266
  18.6110322  50.1700840   9.1935845  12.2336211  49.9973950   8.6342630
  12.3779587  50.5775158   7.9985740  12.5811859  50.3750247   9.3392485
  12.3063672  50.1394654   8.6441625  14.4056128  49.1964118   6.4167762
  13.6579442  49.3895133   6.0116040  14.5597654  48.3709338   6.1791883
  14.3178556  49.1029230   6.3213168  14.6457905  43.0914669   7.3063166
  15.1030519  43.8238643   7.4335958  14.7214234  42.6681134   8.0650421
  14.7248875  43.1371907   7.4364242   6.8890897  43.3380489   8.3952609
   6.3533086  42.7260847   8.7113377   6.9508661  43.9128625   9.0486276
   6.8186529  43.3327417   8.5388036  12.5240283  45.0816773   4.1504990
  11.7336358  44.9008233   4.4722325  12.9200906  44.3043726   4.1335284
  12.4657159  44.9404234   4.1957538  17.9083970  52.7159203   1.8764436
  17.2328971  52.4844435   2.3777823  17.9176346  52.1080386   1.2506541
  17.8102474  52.5918128   1.8580588  15.0378113  47.5577032   8.6328489
  14.9737255  48.4186989   8.5048625  15.1775301  47.2409025   7.8324040
  15.0493584  47.6377199   8.4956701  19.4175904  54.3321754  14.1892939
  20.2310770  54.0606903  14.3498072  19.2570871  54.0329294  13.3853135
  19.5145853  54.2476680  14.0938345  16.6948066  45.0155411   7.1288328
  16.9090036  44.3766325   6.5751682  16.0781966  45.4601235   6.6996189
  16.6353396  44.9865555   6.9838759  18.8587154  46.6244476   8.0671635
  18.0463836  46.3170367   8.1484807  19.3177089  46.1443476   8.6314347
  18.8067539  46.5080969   8.1626229  15.9540662  48.0304548  12.8500337
  16.4240293  48.6546664  13.2368211  16.0002542  47.3621523  13.4093552
  16.0308538  48.0239228  12.9900408  15.1804169  40.6754535   5.4041993
  14.7935922  40.7003567   6.1855523  14.6937106  40.1096214   4.9516510
  15.0516678  40.5950286   5.4529897  19.4297148  55.3928044   9.4615780
  20.0676869  54.8988240   9.1278236  18.7871240  55.3205445   8.8768007
  19.4291375  55.3087053   9.3258135  21.1554148  47.2417190   4.0281696
  20.7281757  47.1543539   3.2729795  20.5180201  47.3494966   4.6136540
  20.9983756  47.2449850   4.0027137  14.8461311  37.5621521   7.6952253
  15.4754429  38.0981821   7.4173324  15.0147173  37.4698880   8.5465819
  14.9639105  37.6282883   7.7800781  14.6475226  42.3492715   9.9678665
  15.4748655  42.0777864  10.0237279  14.6683072  43.1453557  10.3242483
  14.7728076  42.4272470  10.0293848  19.4851405  56.0847852   6.1021137
  20.2743783  55.7336917   6.2223218  19.6595003  56.8984241   5.8397770
  19.6271687  56.1533710   6.0809005  13.0361380  47.4237977   2.4046523
  12.7324518  46.8693966   3.0056931  12.3340801  47.6030187   1.9174557
  12.8877590  47.3682760   2.4216229  21.5918917  40.6489173   0.1440321
  20.9793230  41.1359576   0.5294052  21.6883092  39.9732664   0.6877972
  21.5156814  40.6207482   0.2819179   9.5114146  43.0502338   5.2408576
   9.9715628  43.1241268   5.9783700   9.5570253  43.8483592   4.8908397
   9.5864701  43.1796485   5.2981333  11.1597496  43.7169033   9.8080603
  10.7683061  43.0702380  10.2436381  11.3283359  44.3080468  10.4274859
  11.1268406  43.7083301   9.9643309  25.2343945  51.7206110   5.5717837
  25.2927069  52.1692759   6.3177813  24.6010412  52.1304923   5.1347917
  25.1495240  51.8479845   5.6170385  15.9228894  44.6820022   2.2476746
  15.4488848  44.1561784   2.7582057  16.2947030  44.1349495   1.6791608
  15.9078783  44.5236019   2.2391894   6.3001924  46.6791529   7.6160292
   7.1627537  46.5787238   7.5297622   5.9693707  46.0986238   7.0545864
   6.3787120  46.5783156   7.5205698  22.1865624  49.7422398   3.6583527
  21.9463847  48.9028813   3.6625953  22.6657631  49.8222565   4.3824300
  22.2217808  49.6303798   3.7658329  24.1870811  46.5223855   1.6112786
  23.9480581  46.4819689   0.7733571  24.3504713  47.3695007   1.7378507
  24.1761115  46.6415940   1.5066268  20.7916841  50.9073804   7.5417831
  21.5151040  50.4546331   7.3628851  20.5266804  51.1878470   6.7590159
  20.8598115  50.8824773   7.3996547   9.6603710  45.5033978   4.2770710
   9.0356780  45.5152370   3.6696663   9.3249305  45.9794153   4.9261951
   9.5189202  45.5752495   4.2827279  16.5735631  51.0057683   5.6912846
  15.9592624  50.4615733   5.9861482  17.0902916  50.4921919   5.2118662
  16.5591293  50.8494092   5.6637075  15.8131928  52.0761953   3.4257145
  15.3859536  51.4511671   2.9922580  15.8056872  51.7936875   4.2516152
  15.7491069  51.9414733   3.4836973   8.9294455  47.1127126   6.4945579
   9.0887942  46.3570450   6.8997301   8.7487349  47.6618065   7.1486317
   8.9259814  47.0820939   6.6508285  16.8714758  39.2788361   7.0496368
  16.3755319  39.4752035   6.3587935  17.6283820  39.6781030   6.8785170
  16.9101583  39.3666095   6.9216505  14.1417638  42.9530707   3.6399679
  14.1660125  42.4190819   2.9512459  14.3929111  42.4448016   4.3025270
  14.1827556  42.7991611   3.6364324  12.6048573  51.2462265  11.1225718
  11.7544203  51.3833980  11.2583363  12.7676701  50.5126044  11.5673420
  12.5032436  51.1576367  11.2081317  11.8433323  48.1962035   5.3179322
  11.0125253  48.3635853   5.1114570  11.7884841  47.8197986   6.1028208
  11.7122738  48.1651767   5.4027850   9.6517107  41.6870928  10.9535733
  10.2769810  41.1433061  11.2265165   9.1967587  41.2065846  10.3843523
   9.6765367  41.5360409  10.9097327  23.2252155  49.8700215   6.0448381
  23.8169996  50.5097466   6.0766579  23.6611150  49.1723252   6.3340448
  23.3770587  49.8618566   6.0929214  15.0545545  54.2917588   6.6706275
  14.5470636  54.8453434   7.1146905  14.7572191  54.3525877   5.8525049
  14.9350430  54.3823899   6.6154732  17.2207727  42.6570907   5.5130938
  17.6462799  42.2043434   4.9014464  16.6064721  42.1030978   5.7895725
  17.1936373  42.5084883   5.4635963  20.2501297  47.0845434  -1.6548477
  19.5792487  47.6275136  -1.7835411  20.9441047  47.5540289  -1.8966782
  20.2530164  47.2343705  -1.7092949  20.4129424  43.5401317   1.2541897
  20.7657034  43.1131040   1.9287695  19.5544226  43.4552161   1.3842973
  20.3378869  43.4646058   1.3736907  18.4112690  46.8036686   5.2026739
  18.3910617  46.6219981   6.0561518  18.4591891  47.6748705   5.1786323
  18.4147331  46.9053224   5.3250034  16.3559020  53.3923878  11.1275216
  16.3154875  52.7473555  10.5420371  17.1682338  53.3360495  11.4400628
  16.4702173  53.2882845  11.0872165  21.8453484  38.6619729   2.1826209
  21.3384349  37.9548869   2.1147387  22.6420918  38.3312918   2.3127286
  21.8880724  38.5092881   2.1925204  12.0436729  47.0220815   7.6824973
  11.5315632  46.4141998   8.0410005  11.8716225  47.7377407   8.1498949
  11.9426366  47.0384114   7.8041197   6.8902443  45.4658390  10.3327335
   6.7205034  46.1259765   9.7875542   6.4468393  45.6764951  11.0539824
   6.8001777  45.5944372  10.3588964  15.9205799  44.9445059  10.1227229
  16.4777229  44.7158869   9.4905694  15.5966864  45.7050725   9.8462441
  15.9552209  45.0228896   9.9883726  13.6388916  48.0312713  11.0879236
  14.3900243  48.3464389  11.4018790  13.8311493  47.8291883  10.2613158
  13.7780330  48.0480094  11.0122632  18.2115058  48.8383781   1.9839238
  18.7068724  48.1206776   1.9443258  17.4014834  48.5354578   1.8693725
  18.1658952  48.6881427   1.9612964  20.2766877  51.5887468   4.6716367
  20.7021949  51.0661890   4.1186792  19.9123797  52.1868306   4.1504990
  20.2853480  51.5997695   4.5125377  18.9522461  56.9123046  13.1809596
  19.0619427  56.1231606  13.5366344  19.2813358  56.8228982  12.3783935
  19.0174867  56.7828899  13.1151987  13.7814972  40.0749203   7.9575619
  13.9142877  39.2780196   8.2856595  14.1660124  40.6015606   8.5373895
  13.8571301  40.0349120   8.0919122  17.5019423  55.0939667   7.7645217
  16.9540369  54.4697550   7.4965282  17.9632452  55.2833939   7.0489296
  17.4886633  55.0298717   7.6195648  20.3113287  43.1625021   5.1496409
  19.7276276  43.6634227   4.7373977  20.6317581  42.6554577   4.5160733
  20.2726463  43.1616856   4.9954917  11.4403418  40.0708378   6.2053513
  11.9847831  39.7299505   6.7957855  11.4940354  40.9293840   6.3474797
  11.5292538  40.1463637   6.3135386  17.0677749  56.0990739   4.2954558
  17.8876123  55.9553705   4.5570853  16.7871827  56.7236938   4.8370996
  17.1474493  56.1701091   4.4142498  26.7391085  62.8431242   2.0150365
  25.8828980  63.0039740   2.0659482  26.7858738  61.9723306   2.0355426
  26.6190196  62.7382044   2.0256431  30.0484801  69.1117768  11.6210821
  30.7551568  68.6169798  11.7497756  30.2372737  69.5526849  10.8913479
  30.1812707  69.1036118  11.5319867  29.5842906  64.9023286   4.6582017
  30.1298866  65.5808372   4.7175986  29.5259782  64.7610747   3.7983598
  29.6558820  64.9815288   4.5394077  23.4666871  57.6910308   0.9840748
  23.1370201  58.1421451   0.3144447  22.7911873  57.6126471   1.5313755
  23.3177308  57.7461443   0.9663971  30.6743279  53.6795830  -0.7709641
  30.3596720  54.3699309  -0.3389219  30.1570221  53.6240613  -1.4724141
  30.5507750  53.7730719  -0.8112692  27.1877095  72.5345304   9.5124896
  27.2760441  72.3471445  10.3603107  27.6166808  71.8882734   9.1129743
  27.2639198  72.4108312   9.5796648  24.7547555  71.8176464   8.4942559
  24.1918390  71.4049074   9.0182220  25.5168579  71.7429370   8.9135702
  24.7842004  71.7453865   8.6335559  34.9657724  61.9017037   4.5111235
  34.1286145  61.9719224   4.7458830  34.9345955  61.9041531   3.6385538
  34.8376007  61.9127264   4.4170783  21.3622453  64.0450072  10.2259604
  21.5342957  63.9355967  11.0744885  21.8991811  64.6904478   9.9890796
  21.4667457  64.1242074  10.3164700  25.7079609  55.1619326  -3.8009167
  26.4365770  54.9835281  -4.2471011  25.7974502  56.0037405  -3.5901989
  25.8286271  55.2603204  -3.8355650  27.2997155  71.9654323  12.1768680
  28.0837571  72.0785171  12.5424422  27.0993749  71.1395460  12.3727366
  27.3863180  71.8601043  12.2603066  32.6465564  56.9659818   3.0954958
  33.2891472  57.0357923   3.6816873  32.8988585  56.2989041   2.5934499
  32.7787696  56.8786167   3.1082237  20.4182777  60.1760381   7.7079532
  19.7254573  59.7057361   7.9540263  21.0343104  59.9498686   8.2821239
  20.4067307  60.0727513   7.8288684  27.4567548  73.8764425   5.8235136
  26.6582794  73.6363925   6.0809004  27.9053560  73.9278818   6.5702183
  27.4042159  73.8486816   5.9720060  19.1423336  64.1425785   8.8506377
  19.8663308  64.1278816   9.3371271  19.2439472  64.8521141   8.3528345
  19.2641545  64.2450489   8.8485164  26.5168285  67.6224870  13.7155324
  25.7241266  67.9368382  13.9007943  26.6317212  67.8376339  12.8776108
  26.4163695  67.7008707  13.6193658  27.4452078  67.5245074   8.6540620
  28.0190939  66.8872318   8.8089184  27.3666881  67.5249156   7.7850278
  27.5185313  67.4310185   8.5487031  27.8816847  58.0596790   0.8065911
  27.1773173  57.5705975   0.9649830  27.9301821  58.0719264  -0.0645645
  27.7846898  57.9886438   0.7005250  25.4423797  61.9829451   6.0519091
  25.0538230  61.5583668   5.3971282  24.7778496  62.2311600   6.5596118
  25.2870725  61.9568172   6.0306959  29.2650159  55.6804079   3.5643075
  29.6460670  54.9982251   3.9510949  28.4613443  55.3913682   3.3818740
  29.2026620  55.5371128   3.5947131  32.7672226  68.8954051   8.6625474
  32.5310863  68.0642116   8.5437534  33.4115455  68.8439659   9.2480318
  32.8266896  68.7651739   8.7311367  23.2241999  58.1858278  13.4305684
  22.9095440  58.9557840  13.1675246  22.9031932  57.6228534  12.8457911
  23.1300918  58.2168546  13.3047034  33.7908646  68.6798500   4.7253768
  33.4854463  69.4126557   5.0867084  33.0714862  68.2736430   4.4446554
  33.6395989  68.7280233   4.7366905  29.9006785  56.7226659   7.3763202
  30.6460377  56.5336469   6.9626627  29.4844089  57.2484897   6.8177058
  29.9491759  56.7728804   7.2327775  23.9291447  67.9274484   6.8728600
  23.4303140  68.6390252   6.9513489  24.7391671  68.2475151   6.8346763
  23.9747553  68.0801333   6.8785169  30.9797462  62.3332221   1.4373303
  30.6362228  61.6122556   1.7880553  31.0790504  62.1246072   0.5951661
  30.9439505  62.1956424   1.3644983  22.8558505  60.7855529  12.1690899
  22.0458280  61.0913308  12.0580741  23.3333191  61.5061111  12.2843483
  22.8061983  60.9370130  12.1697970  29.4988427  60.2523806   3.3132846
  28.6599528  60.2785084   3.0771109  29.5692795  60.8994541   3.8938193
  29.3856821  60.3519931   3.3641963  27.9457706  57.1509183  -1.9539538
  28.6484058  56.9516931  -2.4319580  27.6801894  56.3785125  -1.6470695
  28.0104338  57.0072149  -1.9794097  22.7086262  58.4144468   7.0991342
  22.5169459  58.4299602   7.9490766  23.5584858  58.6108142   7.0757997
  22.8061984  58.4458819   7.2214637  27.2471767  62.7802539  -0.7780353
  27.0006482  62.6998290   0.0556436  27.5756890  61.9956007  -0.9717825
  27.2593011  62.6528805  -0.6832830  29.4797901  65.7882274   9.2628810
  29.4745940  64.9162091   9.2671237  30.1858895  65.9870443   8.7898266
  29.5842905  65.6886148   9.1935845  23.2068795  65.5159258   8.6342630
  23.3512170  66.0960466   7.9985740  23.5544443  65.8935555   9.3392485
  23.2796256  65.6579962   8.6441625  25.3788712  64.7149426   6.4167762
  24.6312026  64.9080441   6.0116040  25.5330237  63.8894646   6.1791883
  25.2911139  64.6214538   6.3213168  25.6190489  58.6099977   7.3063166
  26.0763103  59.3423951   7.4335958  25.6946818  58.1866442   8.0650421
  25.6981459  58.6557215   7.4364242  17.8623480  58.8565797   8.3952609
  17.3265670  58.2446155   8.7113377  17.9241245  59.4313933   9.0486276
  17.7919113  58.8512725   8.5388036  30.0917815  51.7889852   1.1757009
  30.2101383  52.2466316   0.4424311  29.9179991  50.9835113   0.8893226
  30.0836986  51.7383624   1.0257942  23.4972867  60.6002081   4.1504990
  22.7068942  60.4193541   4.4722325  23.8933490  59.8229034   4.1335284
  23.4389743  60.4589542   4.1957538  28.8816553  68.2344511   1.8764436
  28.2061555  68.0029743   2.3777823  28.8908929  67.6265694   1.2506541
  28.7835058  68.1103436   1.8580588  26.0110697  63.0762340   8.6328489
  25.9469838  63.9372297   8.5048625  26.1507885  62.7594333   7.8324040
  26.0226167  63.1562507   8.4956701  30.3908488  69.8507062  14.1892939
  31.2043353  69.5792211  14.3498072  30.2303454  69.5514602  13.3853135
  30.4878436  69.7661988  14.0938345  27.6680650  60.5340719   7.1288328
  27.8822619  59.8951633   6.5751682  27.0514549  60.9786543   6.6996189
  27.6085979  60.5050863   6.9838759  29.8319738  62.1429784   8.0671635
  29.0196420  61.8355675   8.1484807  30.2909673  61.6628784   8.6314347
  29.7800123  62.0266277   8.1626229  27.0595379  53.6440655   2.1175670
  26.1888937  53.6179376   2.0708980  27.3135720  53.4717847   1.3001516
  26.9688939  53.6150798   1.9895807  26.9273245  63.5489856  12.8500337
  27.3972877  64.1731972  13.2368211  26.9735126  62.8806831  13.4093552
  27.0041121  63.5424536  12.9900408  24.0844519  55.6546883   3.5749141
  23.5683008  54.9627075   3.7000720  23.5238448  56.3217660   3.5211740
  23.9251032  55.6510141   3.5855207  26.1536753  56.1939843   5.4041993
  25.7668506  56.2188875   6.1855523  25.6669690  55.6281522   4.9516510
  26.0249261  56.1135594   5.4529897  30.4029732  70.9113352   9.4615780
  31.0409452  70.4173548   9.1278236  29.7603824  70.8390753   8.8768007
  30.4023958  70.8272361   9.3258135  32.1286732  62.7602498   4.0281696
  31.7014340  62.6728847   3.2729795  31.4912785  62.8680274   4.6136540
  31.9716339  62.7635158   4.0027137  25.8193894  53.0806829   7.6952253
  26.4487012  53.6167129   7.4173324  25.9879757  52.9884188   8.5465819
  25.9371689  53.1468191   7.7800781  25.6207809  57.8678023   9.9678665
  26.4481238  57.5963172  10.0237279  25.6415655  58.6638865  10.3242483
  25.7460659  57.9457778  10.0293848  30.4583989  71.6033160   6.1021137
  31.2476367  71.2522225   6.2223218  30.6327586  72.4169549   5.8397770
  30.6004270  71.6719017   6.0809005  29.3117813  55.6142717   0.6637555
  29.5167406  55.5465025   1.5094552  28.9844237  56.4201538   0.5958733
  29.2933061  55.7228658   0.7797210  24.0093964  62.9423285   2.4046523
  23.7057101  62.3879274   3.0056931  23.3073385  63.1215495   1.9174557
  23.8610174  62.8868068   2.4216229  32.5651500  56.1674481   0.1440321
  31.9525814  56.6544883   0.5294052  32.6615675  55.4917972   0.6877972
  32.4889398  56.1392790   0.2819179  20.4846730  58.5687646   5.2408576
  20.9448211  58.6426576   5.9783700  20.5302836  59.3668900   4.8908397
  20.5597285  58.6981793   5.2981333  22.1330079  59.2354341   9.8080603
  21.7415645  58.5887688  10.2436381  22.3015942  59.8265776  10.4274859
  22.1000990  59.2268609   9.9643309  36.2076528  67.2391418   5.5717837
  36.2659652  67.6878067   6.3177813  35.5742996  67.6490231   5.1347917
  36.1227824  67.3665153   5.6170385  25.8263177  56.4230116   1.3814689
  24.9799222  56.5952924   1.2556038  25.8234309  55.6179459   1.7180517
  25.7010327  56.3291145   1.4125816  26.8961477  60.2005330   2.2476746
  26.4221432  59.6747092   2.7582057  27.2679613  59.6534803   1.6791608
  26.8811366  60.0421327   2.2391894  17.2734507  62.1976837   7.6160292
  18.1360120  62.0972546   7.5297622  16.9426290  61.6171546   7.0545864
  17.3519704  62.0968464   7.5205698  33.1598208  65.2607706   3.6583527
  32.9196431  64.4214121   3.6625953  33.6390215  65.3407872   4.3824300
  33.1950392  65.1489105   3.7658329  35.1603395  62.0409163   1.6112786
  34.9213165  62.0004997   0.7733571  35.3237296  62.8880315   1.7378507
  35.1493698  62.1601248   1.5066268  31.7649425  66.4259112   7.5417831
  32.4883624  65.9731639   7.3628851  31.4999387  66.7063778   6.7590159
  31.8330698  66.4010081   7.3996547  20.6336293  61.0219286   4.2770710
  20.0089364  61.0337678   3.6696663  20.2981888  61.4979461   4.9261951
  20.4921785  61.0937803   4.2827279  27.5468215  66.5242991   5.6912846
  26.9325208  65.9801041   5.9861482  28.0635499  66.0107227   5.2118662
  27.5323877  66.3679400   5.6637075  26.7864512  67.5947261   3.4257145
  26.3592120  66.9696979   2.9922580  26.7789456  67.3122182   4.2516152
  26.7223653  67.4600041   3.4836973  19.9027039  62.6312434   6.4945579
  20.0620526  61.8755758   6.8997301  19.7219932  63.1803373   7.1486317
  19.8992398  62.6006247   6.6508285  27.8447342  54.7973669   7.0496368
  27.3487903  54.9937343   6.3587935  28.6016404  55.1966337   6.8785170
  27.8834166  54.8851403   6.9216505  25.1150221  58.4716015   3.6399679
  25.1392709  57.9376127   2.9512459  25.3661695  57.9633324   4.3025270
  25.1560140  58.3176919   3.6364324  21.3951544  57.1986833   3.0205423
  21.4349915  57.6996040   3.7340131  20.5701208  57.2897227   2.7511346
  21.2791070  57.2868650   3.0855961  23.5781156  66.7647573  11.1225718
  22.7276787  66.9019288  11.2583363  23.7409284  66.0311352  11.5673420
  23.4765020  66.6761675  11.2081317  22.8165907  63.7147343   5.3179322
  21.9857837  63.8821161   5.1114570  22.7617424  63.3383294   6.1028208
  22.6855322  63.6837074   5.4027850  20.6249690  57.2056236  10.9535733
  21.2502394  56.6618369  11.2265165  20.1700170  56.7251154  10.3843523
  20.6497951  57.0545717  10.9097327  34.1984739  65.3885523   6.0448381
  34.7902579  66.0282774   6.0766579  34.6343734  64.6908560   6.3340448
  34.3503170  65.3803873   6.0929214  26.0278129  69.8102895   6.6706275
  25.5203220  70.3638742   7.1146905  25.7304775  69.8711185   5.8525049
  25.9083014  69.9009207   6.6154732  28.1940311  58.1756215   5.5130938
  28.6195383  57.7228742   4.9014464  27.5797304  57.6216286   5.7895725
  28.1668956  58.0270191   5.4635963  26.6334534  54.6471315  -1.0778485
  25.9902852  54.4968961  -0.5093347  26.2933941  54.4013660  -1.8429380
  26.4879611  54.5883437  -1.1075470  31.3862008  59.0586625   1.2541897
  31.7389618  58.6316348   1.9287695  30.5276809  58.9737469   1.3842973
  31.3111452  58.9831366   1.3736907  29.3845274  62.3221994   5.2026739
  29.3643201  62.1405289   6.0561518  29.4324474  63.1934012   5.1786323
  29.3879915  62.4238532   5.3250034  27.3291603  68.9109186  11.1275216
  27.2887458  68.2658863  10.5420371  28.1414922  68.8545803  11.4400628
  27.4434757  68.8068153  11.0872165  32.8186068  54.1805037   2.1826209
  32.3116933  53.4734177   2.1147387  33.6153502  53.8498226   2.3127286
  32.8613307  54.0278189   2.1925204  28.7350084  60.6871649  -1.9200127
  28.5063777  60.7104351  -2.7621769  28.9948160  59.8629116  -1.8005117
  28.7396272  60.5687729  -2.0274929  23.0169312  62.5406122   7.6824973
  22.5048215  61.9327305   8.0410005  22.8448808  63.2562715   8.1498949
  22.9158949  62.5569422   7.8041197  17.8635027  60.9843698  10.3327335
  17.6937617  61.6445073   9.7875542  17.4200977  61.1950259  11.0539824
  17.7734361  61.1129680  10.3588964  26.8938383  60.4630367  10.1227229
  27.4509813  60.2344177   9.4905694  26.5699448  61.2236033   9.8462441
  26.9284793  60.5414204   9.9883726  24.6121500  63.5498020  11.0879236
  25.3632827  63.8649697  11.4018790  24.8044076  63.3477191  10.2613158
  24.7512914  63.5665402  11.0122632  31.4606790  59.6771587  -1.6696969
  31.4601016  59.5220243  -0.8112692  31.2562970  60.5234574  -1.7255583
  31.4306568  59.7792207  -1.5509029  29.1847642  64.3569089   1.9839238
  29.6801307  63.6392084   1.9443258  28.3747418  64.0539886   1.8693725
  29.1391535  64.2066735   1.9612964  31.2499461  67.1072776   4.6716367
  31.6754532  66.5847198   4.1186792  30.8856381  67.7053613   4.1504990
  31.2586063  67.1183003   4.5125377  29.9255045  72.4308354  13.1809596
  30.0352010  71.6416914  13.5366344  30.2545942  72.3414290  12.3783935
  29.9907451  72.3014207  13.1151987  24.7547555  55.5934511   7.9575619
  24.8875461  54.7965504   8.2856595  25.1392708  56.1200914   8.5373895
  24.8303884  55.5534428   8.0919122  28.4752007  70.6124974   7.7645217
  27.9272953  69.9882858   7.4965282  28.9365035  70.8019246   7.0489296
  28.4619216  70.5484025   7.6195648  27.8279910  52.5164837   4.5556712
  27.0225874  52.4062567   4.8724551  27.6986646  52.6177293   3.6986578
  27.6900043  52.5148507   4.4764753  31.2845871  58.6810329   5.1496409
  30.7008860  59.1819535   4.7373977  31.6050165  58.1739885   4.5160733
  31.2459046  58.6802164   4.9954917  22.4136002  55.5893686   6.2053513
  22.9580415  55.2484813   6.7957855  22.4672938  56.4479148   6.3474797
  22.5025121  55.6648945   6.3135386  28.0410333  71.6176047   4.2954558
  28.8608707  71.4739013   4.5570853  27.7604411  72.2422246   4.8370996
  28.1207076  71.6886399   4.4142498  32.3355037  79.5635380  10.2259604
  32.5075541  79.4541275  11.0744885  32.8724394  80.2089786   9.9890796
  32.4400041  79.6427382  10.3164700  31.3915360  75.6945689   7.7079532
  30.6987157  75.2242669   7.9540263  32.0075687  75.4683994   8.2821239
  31.3799890  75.5912821   7.8288684  34.1974583  73.7043586  13.4305684
  33.8828024  74.4743148  13.1675246  33.8764515  73.1413842  12.8457911
  34.1033502  73.7353854  13.3047034  33.8291088  76.3040837  12.1690899
  33.0190864  76.6098616  12.0580741  34.3065775  77.0246419  12.2843483
  33.7794567  76.4555438  12.1697970  28.8356064  74.3751105   8.3952609
  28.2998253  73.7631463   8.7113377  28.8973828  74.9499241   9.0486276
  28.7651696  74.3698032   8.5388036  37.9005829  79.0675164  12.8500337
  38.3705460  79.6917280  13.2368211  37.9467709  78.3992139  13.4093552
  37.9773705  79.0609844  12.9900408  36.7926478  68.5992137   7.6952253
  37.4219596  69.1352437   7.4173324  36.9612341  68.5069495   8.5465819
  36.9104272  68.6653499   7.7800781  36.5940393  73.3863331   9.9678665
  37.4213822  73.1148480  10.0237279  36.6148239  74.1824173  10.3242483
  36.7193243  73.4643085  10.0293848  33.1062663  74.7539649   9.8080603
  32.7148228  74.1072996  10.2436381  33.2748526  75.3451084  10.4274859
  33.0733573  74.7453917   9.9643309  28.2467091  77.7162145   7.6160292
  29.1092704  77.6157854   7.5297622  27.9158874  77.1356854   7.0545864
  28.3252287  77.6153771   7.5205698  31.5982274  72.7241544  10.9535733
  32.2234977  72.1803677  11.2265165  31.1432754  72.2436462  10.3843523
  31.6230534  72.5731025  10.9097327  28.8367611  76.5029006  10.3327335
  28.6670201  77.1630381   9.7875542  28.3933560  76.7135567  11.0539824
  28.7466944  76.6314988  10.3588964  35.7280139  71.1119819   7.9575619
  35.8608044  70.3150812   8.2856595  36.1125292  71.6386222   8.5373895
  35.8036468  71.0719736   8.0919122  33.3868586  71.1078994   6.2053513
  33.9312999  70.7670121   6.7957855  33.4405521  71.9664455   6.3474797
  33.4757705  71.1834253   6.3135386  29.7435625  46.0495899  -1.4449132
  30.4502392  45.5547929  -1.3162198  29.9323561  46.4904980  -2.1746474
  29.8763531  46.0414249  -1.5340087  26.8827919  49.4723435  -3.5535057
  26.9711265  49.2849576  -2.7056846  27.3117632  48.8260865  -3.9530210
  26.9590022  49.3486443  -3.4863305  24.4498379  48.7554595  -4.5717395
  23.8869214  48.3427205  -4.0477733  25.2119403  48.6807501  -4.1524251
  24.4792828  48.6831996  -4.4324394  26.9947979  48.9032454  -0.8891273
  27.7788395  49.0163302  -0.5235531  26.7944573  48.0773591  -0.6932587
  27.0814004  48.7979174  -0.8056887  27.1518372  50.8142556  -7.2424818
  26.3533618  50.5742056  -6.9850949  27.6004384  50.8656949  -6.4957770
  27.0992983  50.7864948  -7.0939893  26.2119109  44.5603001   0.6495371
  25.4192090  44.8746513   0.8347990  26.3268036  44.7754470  -0.1883845
  26.1114519  44.6386838   0.5533705  32.4623050  45.8332183  -4.4034480
  32.2261687  45.0020247  -4.5222419  33.1066278  45.7817790  -3.8179635
  32.5217720  45.7029871  -4.3348586  30.0859312  46.7885193   1.1232986
  30.8994177  46.5170342   1.2838119  29.9254278  46.4892733   0.3193182
  30.1829260  46.7040119   1.0278392  26.6224069  40.4867987  -0.2159616
  27.0923701  41.1110103   0.1708258  26.6685950  39.8184962   0.3433599
  26.6991945  40.4802667  -0.0759545  30.0980556  47.8491483  -3.6044173
  30.7360276  47.3551679  -3.9381717  29.4554647  47.7768884  -4.1891946
  30.0974782  47.7650492  -3.7401818  30.1534812  48.5411292  -6.9638816
  30.9427191  48.1900356  -6.8436735  30.3278410  49.3547680  -7.2262183
  30.2955094  48.6097149  -6.9850949  23.2731980  43.7025704  -1.9434235
  22.4227611  43.8397419  -1.8076590  23.4360108  42.9689483  -1.4986534
  23.1715844  43.6139806  -1.8578636  27.0242427  45.8487317  -1.9384738
  26.9838282  45.2036994  -2.5239582  27.8365746  45.7923935  -1.6259326
  27.1385581  45.7446284  -1.9787789  29.6205869  49.3686485   0.1149643
  29.7302834  48.5795045   0.4706390  29.9496765  49.2792421  -0.6876019
  29.6858275  49.2392338   0.0492034  28.1702831  47.5503106  -5.3014736
  27.6223777  46.9260989  -5.5694671  28.6315859  47.7397378  -6.0170657
  28.1570040  47.4862156  -5.4464305  32.0305861  56.5013511  -2.8400349
  32.2026364  56.3919406  -1.9915068  32.5675218  57.1467917  -3.0769157
  32.1350865  56.5805513  -2.7495253  31.0866184  52.6323821  -5.3580422
  30.3937981  52.1620800  -5.1119690  31.7026511  52.4062125  -4.7838715
  31.0750714  52.5290952  -5.2371269  33.8925407  50.6421717   0.3645731
  33.5778848  51.4121280   0.1015293  33.5715339  50.0791973  -0.2202043
  33.7984326  50.6731986   0.2387080  33.5241912  53.2418968  -0.8969055
  32.7141688  53.5476748  -1.0079212  34.0016599  53.9624550  -0.7816471
  33.4745391  53.3933569  -0.8961984  33.3769669  50.8707907  -5.9668611
  33.1852866  50.8863041  -5.1169187  34.2268265  51.0671581  -5.9901956
  33.4745391  50.9022258  -5.8445316  28.5306888  51.3129236  -4.6707344
  27.9949077  50.7009594  -4.3546577  28.5924652  51.8877372  -4.0173677
  28.4602520  51.3076164  -4.5271917  37.5956653  56.0053295  -0.2159616
  38.0656284  56.6295411   0.1708258  37.6418533  55.3370270   0.3433599
  37.6724529  55.9987975  -0.0759545  36.4877302  45.5370268  -5.3707700
  37.1170420  46.0730568  -5.6486630  36.6563164  45.4447627  -4.5194134
  36.6055096  45.6031630  -5.2859172  36.2891217  50.3241462  -3.0981288
  37.1164646  50.0526611  -3.0422674  36.3099063  51.1202304  -2.7417470
  36.4144067  50.4021217  -3.0366105  32.8013487  51.6917780  -3.2579350
  32.4099052  51.0451127  -2.8223572  32.9699350  52.2829215  -2.6385095
  32.7684397  51.6832048  -3.1016644  27.9417915  54.6540276  -5.4499661
  28.8043528  54.5535985  -5.5362331  27.6109698  54.0734985  -6.0114089
  28.0203111  54.5531903  -5.5454255  38.5130749  47.2537108  -6.0163585
  38.0171311  47.4500783  -6.7072018  39.2699811  47.6529777  -6.1874783
  38.5517574  47.3414842  -6.1443448  31.2933098  49.6619675  -2.1124220
  31.9185801  49.1181808  -1.8394788  30.8383578  49.1814593  -2.6816430
  31.3181358  49.5109157  -2.1562626  28.5318434  53.4407137  -2.7332618
  28.3621025  54.1008512  -3.2784412  28.0884384  53.6513698  -2.0120129
  28.4417768  53.5693119  -2.7070989  37.5621790  52.9193806  -2.9432725
  38.1193220  52.6907616  -3.5754259  37.2382855  53.6799472  -3.2197512
  37.5968200  52.9977643  -3.0776227  35.2804907  56.0061460  -1.9780717
  36.0316234  56.3213136  -1.6641163  35.4727484  55.8040630  -2.8046796
  35.4196321  56.0228841  -2.0537322  35.4230963  48.0497950  -5.1084334
  35.5558868  47.2528943  -4.7803358  35.8076116  48.5764353  -4.5286058
  35.4987292  48.0097867  -4.9740831  33.0819410  48.0457125  -6.8606440
  33.6263823  47.7048252  -6.2702099  33.1356345  48.9042587  -6.7185156
  33.1708529  48.1212384  -6.7524567
  83.4645600  83.4645600  83.4645600 109.4712190 109.4712190 109.4712190
